 Entering Gaussian System, Link 0=g16
 Input=ts.gjf
 Output=ts.log
 Initial command:
 /share/apps/g16.a03/g16/l1.exe "/tmp/Gau-21374.inp" -scrdir="/tmp/"
 Entering Link 1 = /share/apps/g16.a03/g16/l1.exe PID=     21376.
  
 Copyright (c) 1988,1990,1992,1993,1995,1998,2003,2009,2016,
            Gaussian, Inc.  All Rights Reserved.
  
 This is part of the Gaussian(R) 16 program.  It is based on
 the Gaussian(R) 09 system (copyright 2009, Gaussian, Inc.),
 the Gaussian(R) 03 system (copyright 2003, Gaussian, Inc.),
 the Gaussian(R) 98 system (copyright 1998, Gaussian, Inc.),
 the Gaussian(R) 94 system (copyright 1995, Gaussian, Inc.),
 the Gaussian 92(TM) system (copyright 1992, Gaussian, Inc.),
 the Gaussian 90(TM) system (copyright 1990, Gaussian, Inc.),
 the Gaussian 88(TM) system (copyright 1988, Gaussian, Inc.),
 the Gaussian 86(TM) system (copyright 1986, Carnegie Mellon
 University), and the Gaussian 82(TM) system (copyright 1983,
 Carnegie Mellon University). Gaussian is a federally registered
 trademark of Gaussian, Inc.
  
 This software contains proprietary and confidential information,
 including trade secrets, belonging to Gaussian, Inc.
  
 This software is provided under written license and may be
 used, copied, transmitted, or stored only in accord with that
 written license.
  
 The following legend is applicable only to US Government
 contracts under FAR:
  
                    RESTRICTED RIGHTS LEGEND
  
 Use, reproduction and disclosure by the US Government is
 subject to restrictions as set forth in subparagraphs (a)
 and (c) of the Commercial Computer Software - Restricted
 Rights clause in FAR 52.227-19.
  
 Gaussian, Inc.
 340 Quinnipiac St., Bldg. 40, Wallingford CT 06492
  
  
 ---------------------------------------------------------------
 Warning -- This program may not be used in any manner that
 competes with the business of Gaussian, Inc. or will provide
 assistance to any competitor of Gaussian, Inc.  The licensee
 of this program is prohibited from giving any competitor of
 Gaussian, Inc. access to this program.  By using this program,
 the user acknowledges that Gaussian, Inc. is engaged in the
 business of creating and licensing software in the field of
 computational chemistry and represents and warrants to the
 licensee that it is not a competitor of Gaussian, Inc. and that
 it will not use this program in any manner prohibited above.
 ---------------------------------------------------------------
  

 Cite this work as:
 Gaussian 16, Revision A.03,
 M. J. Frisch, G. W. Trucks, H. B. Schlegel, G. E. Scuseria, 
 M. A. Robb, J. R. Cheeseman, G. Scalmani, V. Barone, 
 G. A. Petersson, H. Nakatsuji, X. Li, M. Caricato, A. V. Marenich, 
 J. Bloino, B. G. Janesko, R. Gomperts, B. Mennucci, H. P. Hratchian, 
 J. V. Ortiz, A. F. Izmaylov, J. L. Sonnenberg, D. Williams-Young, 
 F. Ding, F. Lipparini, F. Egidi, J. Goings, B. Peng, A. Petrone, 
 T. Henderson, D. Ranasinghe, V. G. Zakrzewski, J. Gao, N. Rega, 
 G. Zheng, W. Liang, M. Hada, M. Ehara, K. Toyota, R. Fukuda, 
 J. Hasegawa, M. Ishida, T. Nakajima, Y. Honda, O. Kitao, H. Nakai, 
 T. Vreven, K. Throssell, J. A. Montgomery, Jr., J. E. Peralta, 
 F. Ogliaro, M. J. Bearpark, J. J. Heyd, E. N. Brothers, K. N. Kudin, 
 V. N. Staroverov, T. A. Keith, R. Kobayashi, J. Normand, 
 K. Raghavachari, A. P. Rendell, J. C. Burant, S. S. Iyengar, 
 J. Tomasi, M. Cossi, J. M. Millam, M. Klene, C. Adamo, R. Cammi, 
 J. W. Ochterski, R. L. Martin, K. Morokuma, O. Farkas, 
 J. B. Foresman, and D. J. Fox, Gaussian, Inc., Wallingford CT, 2016.
 
 ******************************************
 Gaussian 16:  EM64L-G16RevA.03 25-Dec-2016
                 6-Mar-2025 
 ******************************************
 %nproc=8
 Will use up to    8 processors via shared memory.
 %mem=4000MB
 --------------------------------------------------------------------
 #opt=(noeigen,calcfc,ts,recalc=5,maxcyc=200) freq B3LYP/SVP em=GD3BJ
 --------------------------------------------------------------------
 1/5=1,6=200,10=4,11=1,18=20,26=3,38=1,71=5/1,3;
 2/9=110,12=2,17=6,18=5,40=1/2;
 3/5=18,7=101,11=2,25=1,30=1,71=2,74=-5,124=41,140=1/1,2,3;
 4//1;
 5/5=2,38=5/2;
 8/6=4,10=90,11=11/1;
 11/6=1,8=1,9=11,15=111,16=1/1,2,10;
 10/6=1,13=1/2;
 6/7=2,8=2,9=2,10=2,28=1/1;
 7/10=1,18=20,25=1/1,2,3,16;
 1/5=1,6=200,10=4,11=1,18=20,26=3,71=5/3(2);
 2/9=110/2;
 99//99;
 2/9=110/2;
 3/5=18,7=101,11=2,25=1,30=1,71=1,74=-5,124=41/1,2,3;
 4/5=5,16=3,69=1/1;
 5/5=2,38=5/2;
 7//1,2,3,16;
 1/5=1,6=200,11=1,18=20,26=3,71=5/3(-5);
 2/9=110/2;
 6/7=2,8=2,9=2,10=2,19=2,28=1/1;
 99/9=1/99;
 ----------
 ts-602.gjf
 ----------
 Symbolic Z-matrix:
 Charge =  0 Multiplicity = 1
 O                     4.13632   1.02019   3.14077 
 Cl                    2.71956   2.03127   3.48781 
 H                     4.48041   1.52329   2.36214 
 

 GradGradGradGradGradGradGradGradGradGradGradGradGradGradGradGradGradGrad
 Berny optimization.
 Initialization pass.
                           ----------------------------
                           !    Initial Parameters    !
                           ! (Angstroms and Degrees)  !
 --------------------------                            --------------------------
 ! Name  Definition              Value          Derivative Info.                !
 --------------------------------------------------------------------------------
 ! R1    R(1,2)                  1.7748         calculate D2E/DX2 analytically  !
 ! R2    R(1,3)                  0.9888         calculate D2E/DX2 analytically  !
 ! A1    A(2,1,3)               98.1579         calculate D2E/DX2 analytically  !
 --------------------------------------------------------------------------------
 Trust Radius=3.00D-01 FncErr=1.00D-07 GrdErr=1.00D-06 EigMax=2.50D+02 EigMin=1.00D-04
 Number of steps in this run=    100 maximum allowed number of steps=    100.
 Search for a saddle point of order  1.
 GradGradGradGradGradGradGradGradGradGradGradGradGradGradGradGradGradGrad

                          Input orientation:                          
 ---------------------------------------------------------------------
 Center     Atomic      Atomic             Coordinates (Angstroms)
 Number     Number       Type             X           Y           Z
 ---------------------------------------------------------------------
      1          8           0        4.136322    1.020188    3.140768
      2         17           0        2.719558    2.031269    3.487811
      3          1           0        4.480412    1.523292    2.362145
 ---------------------------------------------------------------------
                    Distance matrix (angstroms):
                    1          2          3
     1  O    0.000000
     2  Cl   1.774808   0.000000
     3  H    0.988820   2.150761   0.000000
 Stoichiometry    ClHO
 Framework group  CS[SG(ClHO)]
 Deg. of freedom     3
 Full point group                 CS      NOp   2
 Largest Abelian subgroup         CS      NOp   2
 Largest concise Abelian subgroup C1      NOp   1
                         Standard orientation:                         
 ---------------------------------------------------------------------
 Center     Atomic      Atomic             Coordinates (Angstroms)
 Number     Number       Type             X           Y           Z
 ---------------------------------------------------------------------
      1          8           0        0.037647    1.155055   -0.000000
      2         17           0        0.037647   -0.619753    0.000000
      3          1           0       -0.941167    1.295369   -0.000000
 ---------------------------------------------------------------------
 Rotational constants (GHZ):         562.6425891          13.8680887          13.5344888
 Standard basis: SVP (5D, 7F)
 There are    29 symmetry adapted cartesian basis functions of A'  symmetry.
 There are    10 symmetry adapted cartesian basis functions of A"  symmetry.
 There are    27 symmetry adapted basis functions of A'  symmetry.
 There are    10 symmetry adapted basis functions of A"  symmetry.
    37 basis functions,    69 primitive gaussians,    39 cartesian basis functions
    13 alpha electrons       13 beta electrons
       nuclear repulsion energy        49.0137893729 Hartrees.
 NAtoms=    3 NActive=    3 NUniq=    3 SFac= 1.00D+00 NAtFMM=   60 NAOKFM=F Big=F
 Integral buffers will be    131072 words long.
 Raffenetti 2 integral format.
 Two-electron integral symmetry is turned on.
 Nuclear repulsion after empirical dispersion term =       49.0121755472 Hartrees.
 One-electron integrals computed using PRISM.
 NBasis=    37 RedAO= T EigKep=  3.81D-02  NBF=    27    10
 NBsUse=    37 1.00D-06 EigRej= -1.00D+00 NBFU=    27    10
 ExpMin= 1.22D-01 ExpMax= 1.04D+04 ExpMxC= 1.57D+03 IAcc=3 IRadAn=         5 AccDes= 0.00D+00
 Harris functional with IExCor=  402 and IRadAn=       5 diagonalized for initial guess.
 HarFok:  IExCor=  402 AccDes= 0.00D+00 IRadAn=         5 IDoV= 1 UseB2=F ITyADJ=14
 ICtDFT=  3500011 ScaDFX=  1.000000  1.000000  1.000000  1.000000
 FoFCou: FMM=F IPFlag=           0 FMFlag=      100000 FMFlg1=           0
         NFxFlg=           0 DoJE=T BraDBF=F KetDBF=T FulRan=T
         wScrn=  0.000000 ICntrl=       500 IOpCl=  0 I1Cent=   200000004 NGrid=           0
         NMat0=    1 NMatS0=      1 NMatT0=    0 NMatD0=    1 NMtDS0=    0 NMtDT0=    0
 Petite list used in FoFCou.
 Initial guess orbital symmetries:
       Occupied  (A') (A') (A') (A') (A') (A") (A') (A') (A') (A')
                 (A") (A') (A")
       Virtual   (A') (A') (A') (A') (A') (A") (A') (A') (A") (A')
                 (A") (A') (A") (A') (A') (A') (A") (A') (A') (A")
                 (A') (A") (A') (A')
 The electronic state of the initial guess is 1-A'.
 Keep R1 ints in memory in symmetry-blocked form, NReq=7153137.
 Requested convergence on RMS density matrix=1.00D-08 within 128 cycles.
 Requested convergence on MAX density matrix=1.00D-06.
 Requested convergence on             energy=1.00D-06.
 No special actions if energy rises.
 Integral accuracy reduced to 1.0D-05 until final iterations.
 Initial convergence to 1.0D-05 achieved.  Increase integral accuracy.
 SCF Done:  E(RB3LYP) =  -535.758695199     A.U. after   12 cycles
            NFock= 12  Conv=0.58D-08     -V/T= 2.0027
 DoSCS=F DFT=T ScalE2(SS,OS)=  1.000000  1.000000
 Range of M.O.s used for correlation:     1    37
 NBasis=    37 NAE=    13 NBE=    13 NFC=     0 NFV=     0
 NROrb=     37 NOA=    13 NOB=    13 NVA=    24 NVB=    24
 Symmetrizing basis deriv contribution to polar:
 IMax=3 JMax=2 DiffMx= 0.00D+00
 G2DrvN: will do     4 centers at a time, making    1 passes.
 Calling FoFCou, ICntrl=  3107 FMM=F I1Cent=   0 AccDes= 0.00D+00.
 End of G2Drv F.D. properties file   721 does not exist.
 End of G2Drv F.D. properties file   722 does not exist.
 End of G2Drv F.D. properties file   788 does not exist.
          IDoAtm=111
          Differentiating once with respect to nuclear coordinates.
 Keep R1 ints in memory in symmetry-blocked form, NReq=7127942.
          There are    12 degrees of freedom in the 1st order CPHF.  IDoFFX=6 NUNeed=     0.
      6 vectors produced by pass  0 Test12= 2.60D-15 8.33D-09 XBig12= 7.41D-02 1.85D-01.
 AX will form     6 AO Fock derivatives at one time.
      6 vectors produced by pass  1 Test12= 2.60D-15 8.33D-09 XBig12= 2.51D-02 7.59D-02.
      6 vectors produced by pass  2 Test12= 2.60D-15 8.33D-09 XBig12= 8.05D-04 7.79D-03.
      6 vectors produced by pass  3 Test12= 2.60D-15 8.33D-09 XBig12= 2.58D-05 1.56D-03.
      6 vectors produced by pass  4 Test12= 2.60D-15 8.33D-09 XBig12= 2.32D-07 1.52D-04.
      6 vectors produced by pass  5 Test12= 2.60D-15 8.33D-09 XBig12= 1.15D-09 9.97D-06.
      3 vectors produced by pass  6 Test12= 2.60D-15 8.33D-09 XBig12= 1.56D-12 4.50D-07.
 InvSVY:  IOpt=1 It=  1 EMax= 1.11D-16
 Solved reduced A of dimension    39 with     6 vectors.
 End of Minotr F.D. properties file   721 does not exist.
 End of Minotr F.D. properties file   722 does not exist.
 End of Minotr F.D. properties file   788 does not exist.

 **********************************************************************

            Population analysis using the SCF density.

 **********************************************************************

 Orbital symmetries:
       Occupied  (A') (A') (A') (A') (A') (A") (A') (A') (A') (A')
                 (A") (A') (A")
       Virtual   (A') (A') (A') (A') (A') (A") (A') (A') (A") (A')
                 (A") (A') (A") (A') (A') (A') (A") (A') (A') (A")
                 (A') (A') (A") (A')
 The electronic state is 1-A'.
 Alpha  occ. eigenvalues -- -101.54117 -19.20273  -9.49264  -7.26593  -7.24982
 Alpha  occ. eigenvalues --   -7.24948  -1.03264  -0.79169  -0.51094  -0.43178
 Alpha  occ. eigenvalues --   -0.39163  -0.31732  -0.28446
 Alpha virt. eigenvalues --   -0.08855   0.05374   0.45925   0.54367   0.68737
 Alpha virt. eigenvalues --    0.69647   0.70725   0.76021   0.76205   0.83818
 Alpha virt. eigenvalues --    0.84411   0.93657   0.99816   1.02029   1.10251
 Alpha virt. eigenvalues --    1.34880   1.40659   1.53122   2.12692   2.61128
 Alpha virt. eigenvalues --    2.84120   2.89441   2.90796   3.62251
          Condensed to atoms (all electrons):
               1          2          3
     1  O    7.870765   0.125814   0.296785
     2  Cl   0.125814  16.819717  -0.021399
     3  H    0.296785  -0.021399   0.507120
 Mulliken charges:
               1
     1  O   -0.293364
     2  Cl   0.075869
     3  H    0.217495
 Sum of Mulliken charges =  -0.00000
 Mulliken charges with hydrogens summed into heavy atoms:
               1
     1  O   -0.075869
     2  Cl   0.075869
 APT charges:
               1
     1  O   -0.514102
     2  Cl   0.102285
     3  H    0.411817
 Sum of APT charges =  -0.00000
 APT charges with hydrogens summed into heavy atoms:
               1
     1  O   -0.102285
     2  Cl   0.102285
 Electronic spatial extent (au):  <R**2>=            109.0902
 Charge=             -0.0000 electrons
 Dipole moment (field-independent basis, Debye):
    X=             -1.6836    Y=             -0.0023    Z=              0.0000  Tot=              1.6836
 Quadrupole moment (field-independent basis, Debye-Ang):
   XX=            -16.4832   YY=            -16.4853   ZZ=            -18.6484
   XY=             -2.4931   XZ=              0.0000   YZ=              0.0000
 Traceless Quadrupole moment (field-independent basis, Debye-Ang):
   XX=              0.7224   YY=              0.7203   ZZ=             -1.4427
   XY=             -2.4931   XZ=              0.0000   YZ=              0.0000
 Octapole moment (field-independent basis, Debye-Ang**2):
  XXX=             -2.2766  YYY=              0.3070  ZZZ=              0.0000  XYY=             -3.4349
  XXY=              3.3009  XXZ=              0.0000  XZZ=             -0.2371  YZZ=              0.5881
  YYZ=              0.0000  XYZ=              0.0000
 Hexadecapole moment (field-independent basis, Debye-Ang**3):
 XXXX=            -16.8511 YYYY=            -81.8281 ZZZZ=            -16.6775 XXXY=             -0.4627
 XXXZ=              0.0000 YYYX=             -2.8393 YYYZ=              0.0000 ZZZX=             -0.0000
 ZZZY=              0.0000 XXYY=            -15.4599 XXZZ=             -5.9112 YYZZ=            -18.5955
 XXYZ=              0.0000 YYXZ=              0.0000 ZZXY=              0.5403
 N-N= 4.901217554719D+01 E-N=-1.370979734141D+03  KE= 5.342998709806D+02
 Symmetry A'   KE= 4.835465233426D+02
 Symmetry A"   KE= 5.075334763797D+01
  Exact polarizability:   0.000   0.000   0.000   0.000   0.000   0.000
 Approx polarizability:  14.888  -1.095  39.801  -0.000  -0.000  10.105
 Calling FoFJK, ICntrl=    100147 FMM=F ISym2X=1 I1Cent= 0 IOpClX= 0 NMat=1 NMatS=1 NMatT=0.
 ***** Axes restored to original set *****
 -------------------------------------------------------------------
 Center     Atomic                   Forces (Hartrees/Bohr)
 Number     Number              X              Y              Z
 -------------------------------------------------------------------
      1        8          -0.011263606    0.021233044   -0.009478154
      2       17           0.012812145   -0.011063085   -0.001358059
      3        1          -0.001548539   -0.010169959    0.010836213
 -------------------------------------------------------------------
 Cartesian Forces:  Max     0.021233044 RMS     0.011446412
 FormGI is forming the generalized inverse of G from B-inverse, IUseBI=4.

 GradGradGradGradGradGradGradGradGradGradGradGradGradGradGradGradGradGrad
 Berny optimization.
 Internal  Forces:  Max     0.016795601 RMS     0.013612649
 Search for a saddle point.
 Step number   1 out of a maximum of  100
 All quantities printed in internal units (Hartrees-Bohrs-Radians)
 Swapping is turned off.
 Second derivative matrix not updated -- analytic derivatives used.
 The second derivative matrix:
                          R1        R2        A1
           R1           0.18208
           R2          -0.00915   0.45292
           A1           0.05386  -0.00217   0.18562
 ITU=  0
     Eigenvalues ---    0.12988   0.23744   0.45329
 Eigenvectors required to have negative eigenvalues:
                          R1        A1        R2
   1                    0.71936  -0.69446   0.01573
 RFO step:  Lambda0=1.323732801D-01 Lambda=-5.73577586D-04.
 Linear search not attempted -- option 19 set.
 Iteration  1 RMS(Cart)=  0.03770748 RMS(Int)=  0.00086557
 Iteration  2 RMS(Cart)=  0.00061950 RMS(Int)=  0.00000016
 Iteration  3 RMS(Cart)=  0.00000022 RMS(Int)=  0.00000000
 ClnCor:  largest displacement from symmetrization is 3.77D-15 for atom     3.
 Variable       Old X    -DE/DX   Delta X   Delta X   Delta X     New X
                                 (Linear)    (Quad)   (Total)
    R1        3.35390  -0.01680   0.00000   0.01186   0.01186   3.36576
    R2        1.86860  -0.01425   0.00000  -0.03058  -0.03058   1.83802
    A1        1.71318   0.00842   0.00000  -0.04560  -0.04560   1.66757
         Item               Value     Threshold  Converged?
 Maximum Force            0.016796     0.000450     NO 
 RMS     Force            0.013613     0.000300     NO 
 Maximum Displacement     0.041769     0.001800     NO 
 RMS     Displacement     0.037635     0.001200     NO 
 Predicted change in Energy= 5.363090D-04
 GradGradGradGradGradGradGradGradGradGradGradGradGradGradGradGradGradGrad

                          Input orientation:                          
 ---------------------------------------------------------------------
 Center     Atomic      Atomic             Coordinates (Angstroms)
 Number     Number       Type             X           Y           Z
 ---------------------------------------------------------------------
      1          8           0        4.148336    1.011250    3.138163
      2         17           0        2.729648    2.033543    3.476552
      3          1           0        4.458308    1.529956    2.376008
 ---------------------------------------------------------------------
                    Distance matrix (angstroms):
                    1          2          3
     1  O    0.000000
     2  Cl   1.781085   0.000000
     3  H    0.972636   2.110229   0.000000
 Stoichiometry    ClHO
 Framework group  CS[SG(ClHO)]
 Deg. of freedom     3
 Full point group                 CS      NOp   2
 Largest Abelian subgroup         CS      NOp   2
 Largest concise Abelian subgroup C1      NOp   1
                         Standard orientation:                         
 ---------------------------------------------------------------------
 Center     Atomic      Atomic             Coordinates (Angstroms)
 Number     Number       Type             X           Y           Z
 ---------------------------------------------------------------------
      1          8           0        0.037234    1.160941   -0.000000
      2         17           0        0.037234   -0.620144    0.000000
      3          1           0       -0.930851    1.254923   -0.000000
 ---------------------------------------------------------------------
 Rotational constants (GHZ):         573.1692169          13.8188847          13.4935603
 Standard basis: SVP (5D, 7F)
 There are    29 symmetry adapted cartesian basis functions of A'  symmetry.
 There are    10 symmetry adapted cartesian basis functions of A"  symmetry.
 There are    27 symmetry adapted basis functions of A'  symmetry.
 There are    10 symmetry adapted basis functions of A"  symmetry.
    37 basis functions,    69 primitive gaussians,    39 cartesian basis functions
    13 alpha electrons       13 beta electrons
       nuclear repulsion energy        49.0224535385 Hartrees.
 NAtoms=    3 NActive=    3 NUniq=    3 SFac= 1.00D+00 NAtFMM=   60 NAOKFM=F Big=F
 Integral buffers will be    131072 words long.
 Raffenetti 2 integral format.
 Two-electron integral symmetry is turned on.
 Nuclear repulsion after empirical dispersion term =       49.0208376006 Hartrees.
 One-electron integrals computed using PRISM.
 NBasis=    37 RedAO= T EigKep=  3.78D-02  NBF=    27    10
 NBsUse=    37 1.00D-06 EigRej= -1.00D+00 NBFU=    27    10
 Initial guess from the checkpoint file:  "/tmp/Gau-21376.chk"
 B after Tr=    -0.000000   -0.000000    0.000000
         Rot=    1.000000    0.000000   -0.000000   -0.000649 Ang=  -0.07 deg.
 Initial guess orbital symmetries:
       Occupied  (A') (A') (A') (A') (A') (A") (A') (A') (A') (A')
                 (A") (A') (A")
       Virtual   (A') (A') (A') (A') (A') (A") (A') (A') (A") (A')
                 (A") (A') (A") (A') (A') (A') (A") (A') (A') (A")
                 (A') (A') (A") (A')
 ExpMin= 1.22D-01 ExpMax= 1.04D+04 ExpMxC= 1.57D+03 IAcc=2 IRadAn=         4 AccDes= 0.00D+00
 Harris functional with IExCor=  402 and IRadAn=       4 diagonalized for initial guess.
 HarFok:  IExCor=  402 AccDes= 0.00D+00 IRadAn=         4 IDoV= 1 UseB2=F ITyADJ=14
 ICtDFT=  3500011 ScaDFX=  1.000000  1.000000  1.000000  1.000000
 FoFCou: FMM=F IPFlag=           0 FMFlag=      100000 FMFlg1=           0
         NFxFlg=           0 DoJE=T BraDBF=F KetDBF=T FulRan=T
         wScrn=  0.000000 ICntrl=       500 IOpCl=  0 I1Cent=   200000004 NGrid=           0
         NMat0=    1 NMatS0=      1 NMatT0=    0 NMatD0=    1 NMtDS0=    0 NMtDT0=    0
 Petite list used in FoFCou.
 Keep R1 ints in memory in symmetry-blocked form, NReq=7153137.
 Requested convergence on RMS density matrix=1.00D-08 within 128 cycles.
 Requested convergence on MAX density matrix=1.00D-06.
 Requested convergence on             energy=1.00D-06.
 No special actions if energy rises.
 Integral accuracy reduced to 1.0D-05 until final iterations.
 Initial convergence to 1.0D-05 achieved.  Increase integral accuracy.
 SCF Done:  E(RB3LYP) =  -535.758149643     A.U. after   12 cycles
            NFock= 12  Conv=0.17D-08     -V/T= 2.0027
 Calling FoFJK, ICntrl=      2127 FMM=F ISym2X=1 I1Cent= 0 IOpClX= 0 NMat=1 NMatS=1 NMatT=0.
 ***** Axes restored to original set *****
 -------------------------------------------------------------------
 Center     Atomic                   Forces (Hartrees/Bohr)
 Number     Number              X              Y              Z
 -------------------------------------------------------------------
      1        8          -0.019058875    0.017739145    0.000831128
      2       17           0.012109529   -0.012426853    0.000543894
      3        1           0.006949346   -0.005312292   -0.001375022
 -------------------------------------------------------------------
 Cartesian Forces:  Max     0.019058875 RMS     0.010844233

 GradGradGradGradGradGradGradGradGradGradGradGradGradGradGradGradGradGrad
 Berny optimization.
 FormGI is forming the generalized inverse of G from B-inverse, IUseBI=4.
 Internal  Forces:  Max     0.016675115 RMS     0.013446296
 Search for a saddle point.
 Step number   2 out of a maximum of  100
 All quantities printed in internal units (Hartrees-Bohrs-Radians)
 Swapping is turned off.
 Update second derivatives using D2CorX and points    1    2
 The second derivative matrix:
                          R1        R2        A1
           R1           0.18143
           R2          -0.00884   0.47065
           A1           0.05576   0.00453   0.18323
 ITU=  0  0
     Eigenvalues ---    0.12630   0.23806   0.47095
 Eigenvectors required to have negative eigenvalues:
                          R1        A1        R2
   1                   -0.71304   0.70058  -0.02753
 RFO step:  Lambda0=1.304470911D-01 Lambda=-2.60307701D-06.
 Linear search not attempted -- option 19 set.
 Iteration  1 RMS(Cart)=  0.00141508 RMS(Int)=  0.00000140
 Iteration  2 RMS(Cart)=  0.00000186 RMS(Int)=  0.00000000
 Iteration  3 RMS(Cart)=  0.00000000 RMS(Int)=  0.00000000
 ClnCor:  largest displacement from symmetrization is 3.20D-15 for atom     3.
 Variable       Old X    -DE/DX   Delta X   Delta X   Delta X     New X
                                 (Linear)    (Quad)   (Total)
    R1        3.36576  -0.01668   0.00000   0.00138   0.00138   3.36715
    R2        1.83802   0.00046   0.00000   0.00240   0.00240   1.84041
    A1        1.66757   0.01625   0.00000  -0.00187  -0.00187   1.66570
         Item               Value     Threshold  Converged?
 Maximum Force            0.016675     0.000450     NO 
 RMS     Force            0.013446     0.000300     NO 
 Maximum Displacement     0.001587     0.001800     YES
 RMS     Displacement     0.001416     0.001200     NO 
 Predicted change in Energy= 5.401712D-05
 GradGradGradGradGradGradGradGradGradGradGradGradGradGradGradGradGradGrad

                          Input orientation:                          
 ---------------------------------------------------------------------
 Center     Atomic      Atomic             Coordinates (Angstroms)
 Number     Number       Type             X           Y           Z
 ---------------------------------------------------------------------
      1          8           0        4.148614    1.010410    3.138689
      2         17           0        2.729616    2.033786    3.476355
      3          1           0        4.458061    1.530552    2.375678
 ---------------------------------------------------------------------
                    Distance matrix (angstroms):
                    1          2          3
     1  O    0.000000
     2  Cl   1.781817   0.000000
     3  H    0.973905   2.110037   0.000000
 Stoichiometry    ClHO
 Framework group  CS[SG(ClHO)]
 Deg. of freedom     3
 Full point group                 CS      NOp   2
 Largest Abelian subgroup         CS      NOp   2
 Largest concise Abelian subgroup C1      NOp   1
                         Standard orientation:                         
 ---------------------------------------------------------------------
 Center     Atomic      Atomic             Coordinates (Angstroms)
 Number     Number       Type             X           Y           Z
 ---------------------------------------------------------------------
      1          8           0        0.037289    1.161485    0.000000
      2         17           0        0.037289   -0.620333   -0.000000
      3          1           0       -0.932233    1.253776    0.000000
 ---------------------------------------------------------------------
 Rotational constants (GHZ):         571.4001879          13.8092327          13.4833752
 Standard basis: SVP (5D, 7F)
 There are    29 symmetry adapted cartesian basis functions of A'  symmetry.
 There are    10 symmetry adapted cartesian basis functions of A"  symmetry.
 There are    27 symmetry adapted basis functions of A'  symmetry.
 There are    10 symmetry adapted basis functions of A"  symmetry.
    37 basis functions,    69 primitive gaussians,    39 cartesian basis functions
    13 alpha electrons       13 beta electrons
       nuclear repulsion energy        49.0005646976 Hartrees.
 NAtoms=    3 NActive=    3 NUniq=    3 SFac= 1.00D+00 NAtFMM=   60 NAOKFM=F Big=F
 Integral buffers will be    131072 words long.
 Raffenetti 2 integral format.
 Two-electron integral symmetry is turned on.
 Nuclear repulsion after empirical dispersion term =       48.9989487539 Hartrees.
 One-electron integrals computed using PRISM.
 NBasis=    37 RedAO= T EigKep=  3.79D-02  NBF=    27    10
 NBsUse=    37 1.00D-06 EigRej= -1.00D+00 NBFU=    27    10
 Initial guess from the checkpoint file:  "/tmp/Gau-21376.chk"
 B after Tr=    -0.000000    0.000000   -0.000000
         Rot=    1.000000   -0.000000   -0.000000   -0.000074 Ang=  -0.01 deg.
 Initial guess orbital symmetries:
       Occupied  (A') (A') (A') (A') (A') (A") (A') (A') (A') (A')
                 (A") (A') (A")
       Virtual   (A') (A') (A') (A') (A') (A") (A') (A') (A") (A')
                 (A") (A') (A") (A') (A') (A') (A") (A') (A') (A")
                 (A') (A') (A") (A')
 Keep R1 ints in memory in symmetry-blocked form, NReq=7153137.
 Requested convergence on RMS density matrix=1.00D-08 within 128 cycles.
 Requested convergence on MAX density matrix=1.00D-06.
 Requested convergence on             energy=1.00D-06.
 No special actions if energy rises.
 SCF Done:  E(RB3LYP) =  -535.758095495     A.U. after    7 cycles
            NFock=  7  Conv=0.56D-08     -V/T= 2.0027
 Calling FoFJK, ICntrl=      2127 FMM=F ISym2X=1 I1Cent= 0 IOpClX= 0 NMat=1 NMatS=1 NMatT=0.
 ***** Axes restored to original set *****
 -------------------------------------------------------------------
 Center     Atomic                   Forces (Hartrees/Bohr)
 Number     Number              X              Y              Z
 -------------------------------------------------------------------
      1        8          -0.018855757    0.018580652   -0.000133506
      2       17           0.012178250   -0.012545889    0.000591974
      3        1           0.006677506   -0.006034763   -0.000458468
 -------------------------------------------------------------------
 Cartesian Forces:  Max     0.018855757 RMS     0.010995328

 GradGradGradGradGradGradGradGradGradGradGradGradGradGradGradGradGradGrad
 Berny optimization.
 FormGI is forming the generalized inverse of G from B-inverse, IUseBI=4.
 Internal  Forces:  Max     0.016792140 RMS     0.013610410
 Search for a saddle point.
 Step number   3 out of a maximum of  100
 All quantities printed in internal units (Hartrees-Bohrs-Radians)
 Swapping is turned off.
 Update second derivatives using D2CorX and points    1    2    3
 The second derivative matrix:
                          R1        R2        A1
           R1           0.17519
           R2          -0.00531   0.49830
           A1           0.06021  -0.00715   0.18324
 ITU=  0  0  0
     Eigenvalues ---    0.11886   0.23925   0.49860
 Eigenvectors required to have negative eigenvalues:
                          R1        A1        R2
   1                   -0.73017   0.68326   0.00266
 RFO step:  Lambda0=1.233611627D-01 Lambda=-2.70955614D-06.
 Linear search not attempted -- option 19 set.
 Iteration  1 RMS(Cart)=  0.00169947 RMS(Int)=  0.00000053
 Iteration  2 RMS(Cart)=  0.00000060 RMS(Int)=  0.00000000
 ClnCor:  largest displacement from symmetrization is 1.78D-15 for atom     3.
 Variable       Old X    -DE/DX   Delta X   Delta X   Delta X     New X
                                 (Linear)    (Quad)   (Total)
    R1        3.36715  -0.01679   0.00000   0.00377   0.00377   3.37091
    R2        1.84041  -0.00074   0.00000  -0.00158  -0.00158   1.83884
    A1        1.66570   0.01653   0.00000  -0.00020  -0.00020   1.66550
         Item               Value     Threshold  Converged?
 Maximum Force            0.016792     0.000450     NO 
 RMS     Force            0.013610     0.000300     NO 
 Maximum Displacement     0.001764     0.001800     YES
 RMS     Displacement     0.001700     0.001200     NO 
 Predicted change in Energy= 6.725062D-05
 GradGradGradGradGradGradGradGradGradGradGradGradGradGradGradGradGradGrad

                          Input orientation:                          
 ---------------------------------------------------------------------
 Center     Atomic      Atomic             Coordinates (Angstroms)
 Number     Number       Type             X           Y           Z
 ---------------------------------------------------------------------
      1          8           0        4.149420    1.010188    3.138165
      2         17           0        2.728682    2.034340    3.476688
      3          1           0        4.458189    1.530220    2.375870
 ---------------------------------------------------------------------
                    Distance matrix (angstroms):
                    1          2          3
     1  O    0.000000
     2  Cl   1.783811   0.000000
     3  H    0.973070   2.111192   0.000000
 Stoichiometry    ClHO
 Framework group  CS[SG(ClHO)]
 Deg. of freedom     3
 Full point group                 CS      NOp   2
 Largest Abelian subgroup         CS      NOp   2
 Largest concise Abelian subgroup C1      NOp   1
                         Standard orientation:                         
 ---------------------------------------------------------------------
 Center     Atomic      Atomic             Coordinates (Angstroms)
 Number     Number       Type             X           Y           Z
 ---------------------------------------------------------------------
      1          8           0        0.037258    1.162799   -0.000000
      2         17           0        0.037258   -0.621012    0.000000
      3          1           0       -0.931451    1.254817   -0.000000
 ---------------------------------------------------------------------
 Rotational constants (GHZ):         572.3416064          13.7788293          13.4549093
 Standard basis: SVP (5D, 7F)
 There are    29 symmetry adapted cartesian basis functions of A'  symmetry.
 There are    10 symmetry adapted cartesian basis functions of A"  symmetry.
 There are    27 symmetry adapted basis functions of A'  symmetry.
 There are    10 symmetry adapted basis functions of A"  symmetry.
    37 basis functions,    69 primitive gaussians,    39 cartesian basis functions
    13 alpha electrons       13 beta electrons
       nuclear repulsion energy        48.9568272929 Hartrees.
 NAtoms=    3 NActive=    3 NUniq=    3 SFac= 1.00D+00 NAtFMM=   60 NAOKFM=F Big=F
 Integral buffers will be    131072 words long.
 Raffenetti 2 integral format.
 Two-electron integral symmetry is turned on.
 Nuclear repulsion after empirical dispersion term =       48.9552114691 Hartrees.
 One-electron integrals computed using PRISM.
 NBasis=    37 RedAO= T EigKep=  3.79D-02  NBF=    27    10
 NBsUse=    37 1.00D-06 EigRej= -1.00D+00 NBFU=    27    10
 Initial guess from the checkpoint file:  "/tmp/Gau-21376.chk"
 B after Tr=    -0.000000    0.000000    0.000000
         Rot=    1.000000   -0.000000    0.000000    0.000051 Ang=   0.01 deg.
 Initial guess orbital symmetries:
       Occupied  (A') (A') (A') (A') (A') (A") (A') (A') (A') (A')
                 (A") (A') (A")
       Virtual   (A') (A') (A') (A') (A') (A") (A') (A') (A") (A')
                 (A") (A') (A") (A') (A') (A') (A") (A') (A') (A")
                 (A') (A') (A") (A')
 Keep R1 ints in memory in symmetry-blocked form, NReq=7153137.
 Requested convergence on RMS density matrix=1.00D-08 within 128 cycles.
 Requested convergence on MAX density matrix=1.00D-06.
 Requested convergence on             energy=1.00D-06.
 No special actions if energy rises.
 SCF Done:  E(RB3LYP) =  -535.758028182     A.U. after    7 cycles
            NFock=  7  Conv=0.24D-08     -V/T= 2.0027
 Calling FoFJK, ICntrl=      2127 FMM=F ISym2X=1 I1Cent= 0 IOpClX= 0 NMat=1 NMatS=1 NMatT=0.
 ***** Axes restored to original set *****
 -------------------------------------------------------------------
 Center     Atomic                   Forces (Hartrees/Bohr)
 Number     Number              X              Y              Z
 -------------------------------------------------------------------
      1        8          -0.019607337    0.018426368    0.000691133
      2       17           0.012734649   -0.012896555    0.000412638
      3        1           0.006872688   -0.005529813   -0.001103771
 -------------------------------------------------------------------
 Cartesian Forces:  Max     0.019607337 RMS     0.011215812

 GradGradGradGradGradGradGradGradGradGradGradGradGradGradGradGradGradGrad
 Berny optimization.
 FormGI is forming the generalized inverse of G from B-inverse, IUseBI=4.
 Internal  Forces:  Max     0.017468940 RMS     0.013812408
 Search for a saddle point.
 Step number   4 out of a maximum of  100
 All quantities printed in internal units (Hartrees-Bohrs-Radians)
 Swapping is turned off.
 Update second derivatives using D2CorX and points    1    2    3    4
 The second derivative matrix:
                          R1        R2        A1
           R1           0.17713
           R2          -0.01314   0.49661
           A1           0.05608  -0.00614   0.18774
 ITU=  0  0  0  0
     Eigenvalues ---    0.12602   0.23808   0.49739
 Eigenvectors required to have negative eigenvalues:
                          R1        A1        R2
   1                   -0.74077   0.67159  -0.01514
 RFO step:  Lambda0=1.304038888D-01 Lambda=-1.04576828D-06.
 Linear search not attempted -- option 19 set.
 Iteration  1 RMS(Cart)=  0.00125841 RMS(Int)=  0.00000001
 Iteration  2 RMS(Cart)=  0.00000002 RMS(Int)=  0.00000000
 ClnCor:  largest displacement from symmetrization is 1.99D-15 for atom     3.
 Variable       Old X    -DE/DX   Delta X   Delta X   Delta X     New X
                                 (Linear)    (Quad)   (Total)
    R1        3.37091  -0.01747   0.00000   0.00248   0.00248   3.37340
    R2        1.83884   0.00009   0.00000   0.00098   0.00098   1.83982
    A1        1.66550   0.01635   0.00000  -0.00005  -0.00005   1.66545
         Item               Value     Threshold  Converged?
 Maximum Force            0.017469     0.000450     NO 
 RMS     Force            0.013812     0.000300     NO 
 Maximum Displacement     0.001400     0.001800     YES
 RMS     Displacement     0.001258     0.001200     NO 
 Predicted change in Energy= 4.487815D-05
 GradGradGradGradGradGradGradGradGradGradGradGradGradGradGradGradGradGrad

                          Input orientation:                          
 ---------------------------------------------------------------------
 Center     Atomic      Atomic             Coordinates (Angstroms)
 Number     Number       Type             X           Y           Z
 ---------------------------------------------------------------------
      1          8           0        4.149738    1.009838    3.138202
      2         17           0        2.727941    2.034714    3.477013
      3          1           0        4.458613    1.530197    2.375508
 ---------------------------------------------------------------------
                    Distance matrix (angstroms):
                    1          2          3
     1  O    0.000000
     2  Cl   1.785125   0.000000
     3  H    0.973590   2.112599   0.000000
 Stoichiometry    ClHO
 Framework group  CS[SG(ClHO)]
 Deg. of freedom     3
 Full point group                 CS      NOp   2
 Largest Abelian subgroup         CS      NOp   2
 Largest concise Abelian subgroup C1      NOp   1
                         Standard orientation:                         
 ---------------------------------------------------------------------
 Center     Atomic      Atomic             Coordinates (Angstroms)
 Number     Number       Type             X           Y           Z
 ---------------------------------------------------------------------
      1          8           0        0.037278    1.163658   -0.000000
      2         17           0        0.037278   -0.621467    0.000000
      3          1           0       -0.931954    1.255675   -0.000000
 ---------------------------------------------------------------------
 Rotational constants (GHZ):         571.7208186          13.7586285          13.4353040
 Standard basis: SVP (5D, 7F)
 There are    29 symmetry adapted cartesian basis functions of A'  symmetry.
 There are    10 symmetry adapted cartesian basis functions of A"  symmetry.
 There are    27 symmetry adapted basis functions of A'  symmetry.
 There are    10 symmetry adapted basis functions of A"  symmetry.
    37 basis functions,    69 primitive gaussians,    39 cartesian basis functions
    13 alpha electrons       13 beta electrons
       nuclear repulsion energy        48.9219675189 Hartrees.
 NAtoms=    3 NActive=    3 NUniq=    3 SFac= 1.00D+00 NAtFMM=   60 NAOKFM=F Big=F
 Integral buffers will be    131072 words long.
 Raffenetti 2 integral format.
 Two-electron integral symmetry is turned on.
 Nuclear repulsion after empirical dispersion term =       48.9203518002 Hartrees.
 One-electron integrals computed using PRISM.
 NBasis=    37 RedAO= T EigKep=  3.80D-02  NBF=    27    10
 NBsUse=    37 1.00D-06 EigRej= -1.00D+00 NBFU=    27    10
 Initial guess from the checkpoint file:  "/tmp/Gau-21376.chk"
 B after Tr=     0.000000   -0.000000   -0.000000
         Rot=    1.000000   -0.000000    0.000000    0.000004 Ang=   0.00 deg.
 Initial guess orbital symmetries:
       Occupied  (A') (A') (A') (A') (A') (A") (A') (A') (A') (A')
                 (A") (A') (A")
       Virtual   (A') (A') (A') (A') (A') (A") (A') (A') (A") (A')
                 (A") (A') (A") (A') (A') (A') (A") (A') (A') (A")
                 (A') (A') (A") (A')
 Keep R1 ints in memory in symmetry-blocked form, NReq=7153137.
 Requested convergence on RMS density matrix=1.00D-08 within 128 cycles.
 Requested convergence on MAX density matrix=1.00D-06.
 Requested convergence on             energy=1.00D-06.
 No special actions if energy rises.
 SCF Done:  E(RB3LYP) =  -535.757983291     A.U. after    7 cycles
            NFock=  7  Conv=0.69D-08     -V/T= 2.0027
 Calling FoFJK, ICntrl=      2127 FMM=F ISym2X=1 I1Cent= 0 IOpClX= 0 NMat=1 NMatS=1 NMatT=0.
 ***** Axes restored to original set *****
 -------------------------------------------------------------------
 Center     Atomic                   Forces (Hartrees/Bohr)
 Number     Number              X              Y              Z
 -------------------------------------------------------------------
      1        8          -0.019749255    0.018850634    0.000426348
      2       17           0.013085829   -0.013116384    0.000298057
      3        1           0.006663426   -0.005734250   -0.000724405
 -------------------------------------------------------------------
 Cartesian Forces:  Max     0.019749255 RMS     0.011385840

 GradGradGradGradGradGradGradGradGradGradGradGradGradGradGradGradGradGrad
 Berny optimization.
 FormGI is forming the generalized inverse of G from B-inverse, IUseBI=4.
 Internal  Forces:  Max     0.017896468 RMS     0.013943706
 Search for a saddle point.
 Step number   5 out of a maximum of  100
 All quantities printed in internal units (Hartrees-Bohrs-Radians)
 Swapping is turned off.
 Update second derivatives using D2CorX and points    2    3    4    5
 The second derivative matrix:
                          R1        R2        A1
           R1           0.17653
           R2          -0.00783   0.50071
           A1           0.05962  -0.00564   0.18627
 ITU=  0  0  0  0
     Eigenvalues ---    0.12158   0.24087   0.50106
 Eigenvectors required to have negative eigenvalues:
                          R1        A1        R2
   1                   -0.73561   0.67739  -0.00511
 RFO step:  Lambda0=1.261974067D-01 Lambda=-3.03212655D-07.
 Linear search not attempted -- option 19 set.
 Iteration  1 RMS(Cart)=  0.00101566 RMS(Int)=  0.00000061
 Iteration  2 RMS(Cart)=  0.00000042 RMS(Int)=  0.00000000
 ClnCor:  largest displacement from symmetrization is 1.11D-15 for atom     1.
 Variable       Old X    -DE/DX   Delta X   Delta X   Delta X     New X
                                 (Linear)    (Quad)   (Total)
    R1        3.37340  -0.01790   0.00000   0.00017   0.00017   3.37356
    R2        1.83982  -0.00038   0.00000  -0.00053  -0.00053   1.83929
    A1        1.66545   0.01621   0.00000  -0.00129  -0.00129   1.66416
         Item               Value     Threshold  Converged?
 Maximum Force            0.017896     0.000450     NO 
 RMS     Force            0.013944     0.000300     NO 
 Maximum Displacement     0.001124     0.001800     YES
 RMS     Displacement     0.001016     0.001200     YES
 Predicted change in Energy= 2.387377D-05
 GradGradGradGradGradGradGradGradGradGradGradGradGradGradGradGradGradGrad

                          Input orientation:                          
 ---------------------------------------------------------------------
 Center     Atomic      Atomic             Coordinates (Angstroms)
 Number     Number       Type             X           Y           Z
 ---------------------------------------------------------------------
      1          8           0        4.150018    1.009573    3.138194
      2         17           0        2.728256    2.034754    3.476691
      3          1           0        4.458018    1.530422    2.375839
 ---------------------------------------------------------------------
                    Distance matrix (angstroms):
                    1          2          3
     1  O    0.000000
     2  Cl   1.785212   0.000000
     3  H    0.973310   2.111469   0.000000
 Stoichiometry    ClHO
 Framework group  CS[SG(ClHO)]
 Deg. of freedom     3
 Full point group                 CS      NOp   2
 Largest Abelian subgroup         CS      NOp   2
 Largest concise Abelian subgroup C1      NOp   1
                         Standard orientation:                         
 ---------------------------------------------------------------------
 Center     Atomic      Atomic             Coordinates (Angstroms)
 Number     Number       Type             X           Y           Z
 ---------------------------------------------------------------------
      1          8           0        0.037272    1.163764    0.000000
      2         17           0        0.037272   -0.621448   -0.000000
      3          1           0       -0.931799    1.254506    0.000000
 ---------------------------------------------------------------------
 Rotational constants (GHZ):         571.8574028          13.7585638          13.4353177
 Standard basis: SVP (5D, 7F)
 There are    29 symmetry adapted cartesian basis functions of A'  symmetry.
 There are    10 symmetry adapted cartesian basis functions of A"  symmetry.
 There are    27 symmetry adapted basis functions of A'  symmetry.
 There are    10 symmetry adapted basis functions of A"  symmetry.
    37 basis functions,    69 primitive gaussians,    39 cartesian basis functions
    13 alpha electrons       13 beta electrons
       nuclear repulsion energy        48.9235184852 Hartrees.
 NAtoms=    3 NActive=    3 NUniq=    3 SFac= 1.00D+00 NAtFMM=   60 NAOKFM=F Big=F
 Integral buffers will be    131072 words long.
 Raffenetti 2 integral format.
 Two-electron integral symmetry is turned on.
 Nuclear repulsion after empirical dispersion term =       48.9219027078 Hartrees.
 One-electron integrals computed using PRISM.
 NBasis=    37 RedAO= T EigKep=  3.80D-02  NBF=    27    10
 NBsUse=    37 1.00D-06 EigRej= -1.00D+00 NBFU=    27    10
 Initial guess from the checkpoint file:  "/tmp/Gau-21376.chk"
 B after Tr=    -0.000000   -0.000000   -0.000000
         Rot=    1.000000   -0.000000    0.000000   -0.000023 Ang=  -0.00 deg.
 Initial guess orbital symmetries:
       Occupied  (A') (A') (A') (A') (A') (A") (A') (A') (A') (A')
                 (A") (A') (A")
       Virtual   (A') (A') (A') (A') (A') (A") (A') (A') (A") (A')
                 (A") (A') (A") (A') (A') (A') (A") (A') (A') (A")
                 (A') (A') (A") (A')
 Keep R1 ints in memory in symmetry-blocked form, NReq=7153137.
 Requested convergence on RMS density matrix=1.00D-08 within 128 cycles.
 Requested convergence on MAX density matrix=1.00D-06.
 Requested convergence on             energy=1.00D-06.
 No special actions if energy rises.
 SCF Done:  E(RB3LYP) =  -535.757959410     A.U. after    7 cycles
            NFock=  7  Conv=0.57D-08     -V/T= 2.0027
 Calling FoFJK, ICntrl=      2127 FMM=F ISym2X=1 I1Cent= 0 IOpClX= 0 NMat=1 NMatS=1 NMatT=0.
 ***** Axes restored to original set *****
 -------------------------------------------------------------------
 Center     Atomic                   Forces (Hartrees/Bohr)
 Number     Number              X              Y              Z
 -------------------------------------------------------------------
      1        8          -0.019885751    0.018803419    0.000593914
      2       17           0.013034976   -0.013135803    0.000362182
      3        1           0.006850775   -0.005667616   -0.000956096
 -------------------------------------------------------------------
 Cartesian Forces:  Max     0.019885751 RMS     0.011411128

 GradGradGradGradGradGradGradGradGradGradGradGradGradGradGradGradGradGrad
 Berny optimization.
 FormGI is forming the generalized inverse of G from B-inverse, IUseBI=4.
 Internal  Forces:  Max     0.017856119 RMS     0.014015669
 Search for a saddle point.
 Step number   6 out of a maximum of  100
 All quantities printed in internal units (Hartrees-Bohrs-Radians)
 Swapping is turned off.
 Second derivative matrix not updated -- analytic derivatives used.
 The second derivative matrix:
                          R1        R2        A1
           R1           0.17653
           R2          -0.00783   0.50071
           A1           0.05962  -0.00564   0.18627
 ITU=  0  0  0  0
     Eigenvalues ---    0.12158   0.24087   0.50106
 Eigenvectors required to have negative eigenvalues:
                          R1        A1        R2
   1                   -0.73561   0.67739  -0.00511
 RFO step:  Lambda0=1.262443415D-01 Lambda= 0.00000000D+00.
 Linear search not attempted -- option 19 set.
 Iteration  1 RMS(Cart)=  0.00001112 RMS(Int)=  0.00000000
 Iteration  2 RMS(Cart)=  0.00000000 RMS(Int)=  0.00000000
 ClnCor:  largest displacement from symmetrization is 3.77D-15 for atom     3.
 Variable       Old X    -DE/DX   Delta X   Delta X   Delta X     New X
                                 (Linear)    (Quad)   (Total)
    R1        3.37356  -0.01786   0.00000   0.00002   0.00002   3.37358
    R2        1.83929  -0.00012   0.00000   0.00002   0.00002   1.83931
    A1        1.66416   0.01645   0.00000  -0.00001  -0.00001   1.66416
         Item               Value     Threshold  Converged?
 Maximum Force            0.017856     0.000450     NO 
 RMS     Force            0.014016     0.000300     NO 
 Maximum Displacement     0.000010     0.001800     YES
 RMS     Displacement     0.000011     0.001200     YES
 Predicted change in Energy= 4.617094D-07
 GradGradGradGradGradGradGradGradGradGradGradGradGradGradGradGradGradGrad

                          Input orientation:                          
 ---------------------------------------------------------------------
 Center     Atomic      Atomic             Coordinates (Angstroms)
 Number     Number       Type             X           Y           Z
 ---------------------------------------------------------------------
      1          8           0        4.150020    1.009568    3.138196
      2         17           0        2.728251    2.034757    3.476693
      3          1           0        4.458020    1.530424    2.375835
 ---------------------------------------------------------------------
                    Distance matrix (angstroms):
                    1          2          3
     1  O    0.000000
     2  Cl   1.785223   0.000000
     3  H    0.973319   2.111479   0.000000
 Stoichiometry    ClHO
 Framework group  CS[SG(ClHO)]
 Deg. of freedom     3
 Full point group                 CS      NOp   2
 Largest Abelian subgroup         CS      NOp   2
 Largest concise Abelian subgroup C1      NOp   1
                         Standard orientation:                         
 ---------------------------------------------------------------------
 Center     Atomic      Atomic             Coordinates (Angstroms)
 Number     Number       Type             X           Y           Z
 ---------------------------------------------------------------------
      1          8           0        0.037272    1.163771    0.000000
      2         17           0        0.037272   -0.621452   -0.000000
      3          1           0       -0.931808    1.254508    0.000000
 ---------------------------------------------------------------------
 Rotational constants (GHZ):         571.8462234          13.7584034          13.4351585
 Standard basis: SVP (5D, 7F)
 There are    29 symmetry adapted cartesian basis functions of A'  symmetry.
 There are    10 symmetry adapted cartesian basis functions of A"  symmetry.
 There are    27 symmetry adapted basis functions of A'  symmetry.
 There are    10 symmetry adapted basis functions of A"  symmetry.
    37 basis functions,    69 primitive gaussians,    39 cartesian basis functions
    13 alpha electrons       13 beta electrons
       nuclear repulsion energy        48.9232172040 Hartrees.
 NAtoms=    3 NActive=    3 NUniq=    3 SFac= 1.00D+00 NAtFMM=   60 NAOKFM=F Big=F
 Integral buffers will be    131072 words long.
 Raffenetti 2 integral format.
 Two-electron integral symmetry is turned on.
 Nuclear repulsion after empirical dispersion term =       48.9216014273 Hartrees.
 One-electron integrals computed using PRISM.
 NBasis=    37 RedAO= T EigKep=  3.80D-02  NBF=    27    10
 NBsUse=    37 1.00D-06 EigRej= -1.00D+00 NBFU=    27    10
 Initial guess from the checkpoint file:  "/tmp/Gau-21376.chk"
 B after Tr=     0.000000    0.000000   -0.000000
         Rot=    1.000000    0.000000   -0.000000   -0.000000 Ang=  -0.00 deg.
 Initial guess orbital symmetries:
       Occupied  (A') (A') (A') (A') (A') (A") (A') (A') (A') (A')
                 (A") (A') (A")
       Virtual   (A') (A') (A') (A') (A') (A") (A') (A') (A") (A')
                 (A") (A') (A") (A') (A') (A') (A") (A') (A') (A")
                 (A') (A') (A") (A')
 Keep R1 ints in memory in symmetry-blocked form, NReq=7153137.
 Requested convergence on RMS density matrix=1.00D-08 within 128 cycles.
 Requested convergence on MAX density matrix=1.00D-06.
 Requested convergence on             energy=1.00D-06.
 No special actions if energy rises.
 SCF Done:  E(RB3LYP) =  -535.757958948     A.U. after    4 cycles
            NFock=  4  Conv=0.74D-08     -V/T= 2.0027
 Calling FoFJK, ICntrl=      2127 FMM=F ISym2X=1 I1Cent= 0 IOpClX= 0 NMat=1 NMatS=1 NMatT=0.
 ***** Axes restored to original set *****
 -------------------------------------------------------------------
 Center     Atomic                   Forces (Hartrees/Bohr)
 Number     Number              X              Y              Z
 -------------------------------------------------------------------
      1        8          -0.019885549    0.018809503    0.000588089
      2       17           0.013037444   -0.013137577    0.000361589
      3        1           0.006848105   -0.005671926   -0.000949678
 -------------------------------------------------------------------
 Cartesian Forces:  Max     0.019885549 RMS     0.011412708

 GradGradGradGradGradGradGradGradGradGradGradGradGradGradGradGradGradGrad
 Berny optimization.
 FormGI is forming the generalized inverse of G from B-inverse, IUseBI=4.
 Internal  Forces:  Max     0.017859225 RMS     0.014016993
 Search for a saddle point.
 Step number   7 out of a maximum of  100
 All quantities printed in internal units (Hartrees-Bohrs-Radians)
 Swapping is turned off.
 Update second derivatives using D2CorX and points    4    5    7
 The second derivative matrix:
                          R1        R2        A1
           R1           0.17719
           R2          -0.01060   0.50289
           A1           0.05838  -0.00063   0.18855
 ITU=  0  0  0  0
     Eigenvalues ---    0.12407   0.24131   0.50326
 Eigenvectors required to have negative eigenvalues:
                          R1        A1        R2
   1                   -0.74127   0.67092  -0.01963
 RFO step:  Lambda0=1.286503277D-01 Lambda=-4.36744553D-07.
 Linear search not attempted -- option 19 set.
 Iteration  1 RMS(Cart)=  0.00073837 RMS(Int)=  0.00000002
 Iteration  2 RMS(Cart)=  0.00000003 RMS(Int)=  0.00000000
 ClnCor:  largest displacement from symmetrization is 4.55D-15 for atom     3.
 Variable       Old X    -DE/DX   Delta X   Delta X   Delta X     New X
                                 (Linear)    (Quad)   (Total)
    R1        3.37358  -0.01786   0.00000   0.00143   0.00143   3.37501
    R2        1.83931  -0.00012   0.00000   0.00074   0.00074   1.84004
    A1        1.66416   0.01645   0.00000  -0.00010  -0.00010   1.66406
         Item               Value     Threshold  Converged?
 Maximum Force            0.017859     0.000450     NO 
 RMS     Force            0.014017     0.000300     NO 
 Maximum Displacement     0.000789     0.001800     YES
 RMS     Displacement     0.000738     0.001200     YES
 Predicted change in Energy= 2.749654D-05
 GradGradGradGradGradGradGradGradGradGradGradGradGradGradGradGradGradGrad

                          Input orientation:                          
 ---------------------------------------------------------------------
 Center     Atomic      Atomic             Coordinates (Angstroms)
 Number     Number       Type             X           Y           Z
 ---------------------------------------------------------------------
      1          8           0        4.150197    1.009331    3.138255
      2         17           0        2.727834    2.034974    3.476870
      3          1           0        4.458261    1.530444    2.375598
 ---------------------------------------------------------------------
                    Distance matrix (angstroms):
                    1          2          3
     1  O    0.000000
     2  Cl   1.785979   0.000000
     3  H    0.973709   2.112281   0.000000
 Stoichiometry    ClHO
 Framework group  CS[SG(ClHO)]
 Deg. of freedom     3
 Full point group                 CS      NOp   2
 Largest Abelian subgroup         CS      NOp   2
 Largest concise Abelian subgroup C1      NOp   1
                         Standard orientation:                         
 ---------------------------------------------------------------------
 Center     Atomic      Atomic             Coordinates (Angstroms)
 Number     Number       Type             X           Y           Z
 ---------------------------------------------------------------------
      1          8           0        0.037288    1.164268   -0.000000
      2         17           0        0.037288   -0.621711    0.000000
      3          1           0       -0.932190    1.254947   -0.000000
 ---------------------------------------------------------------------
 Rotational constants (GHZ):         571.3743252          13.7468558          13.4238867
 Standard basis: SVP (5D, 7F)
 There are    29 symmetry adapted cartesian basis functions of A'  symmetry.
 There are    10 symmetry adapted cartesian basis functions of A"  symmetry.
 There are    27 symmetry adapted basis functions of A'  symmetry.
 There are    10 symmetry adapted basis functions of A"  symmetry.
    37 basis functions,    69 primitive gaussians,    39 cartesian basis functions
    13 alpha electrons       13 beta electrons
       nuclear repulsion energy        48.9027960750 Hartrees.
 NAtoms=    3 NActive=    3 NUniq=    3 SFac= 1.00D+00 NAtFMM=   60 NAOKFM=F Big=F
 Integral buffers will be    131072 words long.
 Raffenetti 2 integral format.
 Two-electron integral symmetry is turned on.
 Nuclear repulsion after empirical dispersion term =       48.9011803575 Hartrees.
 One-electron integrals computed using PRISM.
 NBasis=    37 RedAO= T EigKep=  3.81D-02  NBF=    27    10
 NBsUse=    37 1.00D-06 EigRej= -1.00D+00 NBFU=    27    10
 Initial guess from the checkpoint file:  "/tmp/Gau-21376.chk"
 B after Tr=     0.000000   -0.000000    0.000000
         Rot=    1.000000    0.000000    0.000000   -0.000002 Ang=  -0.00 deg.
 Initial guess orbital symmetries:
       Occupied  (A') (A') (A') (A') (A') (A") (A') (A') (A') (A')
                 (A") (A') (A")
       Virtual   (A') (A') (A') (A') (A') (A") (A') (A') (A") (A')
                 (A") (A') (A") (A') (A') (A') (A") (A') (A') (A")
                 (A') (A') (A") (A')
 Keep R1 ints in memory in symmetry-blocked form, NReq=7153137.
 Requested convergence on RMS density matrix=1.00D-08 within 128 cycles.
 Requested convergence on MAX density matrix=1.00D-06.
 Requested convergence on             energy=1.00D-06.
 No special actions if energy rises.
 SCF Done:  E(RB3LYP) =  -535.757931451     A.U. after    7 cycles
            NFock=  7  Conv=0.41D-08     -V/T= 2.0027
 Calling FoFJK, ICntrl=      2127 FMM=F ISym2X=1 I1Cent= 0 IOpClX= 0 NMat=1 NMatS=1 NMatT=0.
 ***** Axes restored to original set *****
 -------------------------------------------------------------------
 Center     Atomic                   Forces (Hartrees/Bohr)
 Number     Number              X              Y              Z
 -------------------------------------------------------------------
      1        8          -0.019938496    0.019101987    0.000364843
      2       17           0.013232772   -0.013262668    0.000300475
      3        1           0.006705724   -0.005839318   -0.000665318
 -------------------------------------------------------------------
 Cartesian Forces:  Max     0.019938496 RMS     0.011514071

 GradGradGradGradGradGradGradGradGradGradGradGradGradGradGradGradGradGrad
 Berny optimization.
 FormGI is forming the generalized inverse of G from B-inverse, IUseBI=4.
 Internal  Forces:  Max     0.018098304 RMS     0.014096783
 Search for a saddle point.
 Step number   8 out of a maximum of  100
 All quantities printed in internal units (Hartrees-Bohrs-Radians)
 Swapping is turned off.
 Update second derivatives using D2CorX and points    5    6    7    8
 The second derivative matrix:
                          R1        R2        A1
           R1           0.17603
           R2          -0.00914   0.50384
           A1           0.05815  -0.00167   0.18915
 ITU=  0  0  0  0
     Eigenvalues ---    0.12399   0.24090   0.50413
 Eigenvectors required to have negative eigenvalues:
                          R1        A1        R2
   1                   -0.74625   0.66550  -0.01503
 RFO step:  Lambda0=1.286214358D-01 Lambda=-1.59602453D-07.
 Linear search not attempted -- option 19 set.
 Iteration  1 RMS(Cart)=  0.00049809 RMS(Int)=  0.00000002
 Iteration  2 RMS(Cart)=  0.00000003 RMS(Int)=  0.00000000
 ClnCor:  largest displacement from symmetrization is 5.69D-15 for atom     3.
 Variable       Old X    -DE/DX   Delta X   Delta X   Delta X     New X
                                 (Linear)    (Quad)   (Total)
    R1        3.37501  -0.01810   0.00000   0.00108   0.00108   3.37609
    R2        1.84004  -0.00048   0.00000  -0.00021  -0.00021   1.83984
    A1        1.66406   0.01638   0.00000   0.00004   0.00004   1.66410
         Item               Value     Threshold  Converged?
 Maximum Force            0.018098     0.000450     NO 
 RMS     Force            0.014097     0.000300     NO 
 Maximum Displacement     0.000574     0.001800     YES
 RMS     Displacement     0.000498     0.001200     YES
 Predicted change in Energy= 1.887670D-05
 GradGradGradGradGradGradGradGradGradGradGradGradGradGradGradGradGradGrad

                          Input orientation:                          
 ---------------------------------------------------------------------
 Center     Atomic      Atomic             Coordinates (Angstroms)
 Number     Number       Type             X           Y           Z
 ---------------------------------------------------------------------
      1          8           0        4.150388    1.009263    3.138145
      2         17           0        2.727530    2.035132    3.476999
      3          1           0        4.458374    1.530353    2.375580
 ---------------------------------------------------------------------
                    Distance matrix (angstroms):
                    1          2          3
     1  O    0.000000
     2  Cl   1.786548   0.000000
     3  H    0.973600   2.112759   0.000000
 Stoichiometry    ClHO
 Framework group  CS[SG(ClHO)]
 Deg. of freedom     3
 Full point group                 CS      NOp   2
 Largest Abelian subgroup         CS      NOp   2
 Largest concise Abelian subgroup C1      NOp   1
                         Standard orientation:                         
 ---------------------------------------------------------------------
 Center     Atomic      Atomic             Coordinates (Angstroms)
 Number     Number       Type             X           Y           Z
 ---------------------------------------------------------------------
      1          8           0        0.037283    1.164639    0.000000
      2         17           0        0.037283   -0.621909    0.000000
      3          1           0       -0.932082    1.255344   -0.000000
 ---------------------------------------------------------------------
 Rotational constants (GHZ):         571.5055225          13.7381149          13.4156239
 Standard basis: SVP (5D, 7F)
 There are    29 symmetry adapted cartesian basis functions of A'  symmetry.
 There are    10 symmetry adapted cartesian basis functions of A"  symmetry.
 There are    27 symmetry adapted basis functions of A'  symmetry.
 There are    10 symmetry adapted basis functions of A"  symmetry.
    37 basis functions,    69 primitive gaussians,    39 cartesian basis functions
    13 alpha electrons       13 beta electrons
       nuclear repulsion energy        48.8894814670 Hartrees.
 NAtoms=    3 NActive=    3 NUniq=    3 SFac= 1.00D+00 NAtFMM=   60 NAOKFM=F Big=F
 Integral buffers will be    131072 words long.
 Raffenetti 2 integral format.
 Two-electron integral symmetry is turned on.
 Nuclear repulsion after empirical dispersion term =       48.8878657909 Hartrees.
 One-electron integrals computed using PRISM.
 NBasis=    37 RedAO= T EigKep=  3.81D-02  NBF=    27    10
 NBsUse=    37 1.00D-06 EigRej= -1.00D+00 NBFU=    27    10
 Initial guess from the checkpoint file:  "/tmp/Gau-21376.chk"
 B after Tr=     0.000000    0.000000   -0.000000
         Rot=    1.000000   -0.000000   -0.000000    0.000013 Ang=   0.00 deg.
 Initial guess orbital symmetries:
       Occupied  (A') (A') (A') (A') (A') (A") (A') (A') (A') (A')
                 (A") (A') (A")
       Virtual   (A') (A') (A') (A') (A') (A") (A') (A') (A") (A')
                 (A") (A') (A") (A') (A') (A') (A") (A') (A') (A")
                 (A') (A') (A") (A')
 Keep R1 ints in memory in symmetry-blocked form, NReq=7153137.
 Requested convergence on RMS density matrix=1.00D-08 within 128 cycles.
 Requested convergence on MAX density matrix=1.00D-06.
 Requested convergence on             energy=1.00D-06.
 No special actions if energy rises.
 SCF Done:  E(RB3LYP) =  -535.757912575     A.U. after    7 cycles
            NFock=  7  Conv=0.18D-08     -V/T= 2.0027
 Calling FoFJK, ICntrl=      2127 FMM=F ISym2X=1 I1Cent= 0 IOpClX= 0 NMat=1 NMatS=1 NMatT=0.
 ***** Axes restored to original set *****
 -------------------------------------------------------------------
 Center     Atomic                   Forces (Hartrees/Bohr)
 Number     Number              X              Y              Z
 -------------------------------------------------------------------
      1        8          -0.020106353    0.019114604    0.000505358
      2       17           0.013392627   -0.013359648    0.000245457
      3        1           0.006713726   -0.005754956   -0.000750816
 -------------------------------------------------------------------
 Cartesian Forces:  Max     0.020106353 RMS     0.011578472

 GradGradGradGradGradGradGradGradGradGradGradGradGradGradGradGradGradGrad
 Berny optimization.
 FormGI is forming the generalized inverse of G from B-inverse, IUseBI=4.
 Internal  Forces:  Max     0.018291276 RMS     0.014151726
 Search for a saddle point.
 Step number   9 out of a maximum of  100
 All quantities printed in internal units (Hartrees-Bohrs-Radians)
 Swapping is turned off.
 Update second derivatives using D2CorX and points    6    7    9
 The second derivative matrix:
                          R1        R2        A1
           R1           0.17589
           R2          -0.00930   0.50378
           A1           0.05795  -0.00171   0.18916
 ITU=  0  0  0  0
     Eigenvalues ---    0.12411   0.24064   0.50408
 Eigenvectors required to have negative eigenvalues:
                          R1        A1        R2
   1                   -0.74682   0.66485  -0.01531
 RFO step:  Lambda0=1.287768355D-01 Lambda= 0.00000000D+00.
 Linear search not attempted -- option 19 set.
 Iteration  1 RMS(Cart)=  0.00006381 RMS(Int)=  0.00000000
 Iteration  2 RMS(Cart)=  0.00000000 RMS(Int)=  0.00000000
 ClnCor:  largest displacement from symmetrization is 2.18D-15 for atom     1.
 Variable       Old X    -DE/DX   Delta X   Delta X   Delta X     New X
                                 (Linear)    (Quad)   (Total)
    R1        3.37609  -0.01829   0.00000   0.00013   0.00013   3.37622
    R2        1.83984  -0.00037   0.00000   0.00002   0.00002   1.83985
    A1        1.66410   0.01631   0.00000   0.00001   0.00001   1.66410
         Item               Value     Threshold  Converged?
 Maximum Force            0.018291     0.000450     NO 
 RMS     Force            0.014152     0.000300     NO 
 Maximum Displacement     0.000075     0.001800     YES
 RMS     Displacement     0.000064     0.001200     YES
 Predicted change in Energy= 2.276099D-06
 GradGradGradGradGradGradGradGradGradGradGradGradGradGradGradGradGradGrad

                          Input orientation:                          
 ---------------------------------------------------------------------
 Center     Atomic      Atomic             Coordinates (Angstroms)
 Number     Number       Type             X           Y           Z
 ---------------------------------------------------------------------
      1          8           0        4.150406    1.009251    3.138140
      2         17           0        2.727490    2.035151    3.477017
      3          1           0        4.458395    1.530346    2.375567
 ---------------------------------------------------------------------
                    Distance matrix (angstroms):
                    1          2          3
     1  O    0.000000
     2  Cl   1.786617   0.000000
     3  H    0.973609   2.112830   0.000000
 Stoichiometry    ClHO
 Framework group  CS[SG(ClHO)]
 Deg. of freedom     3
 Full point group                 CS      NOp   2
 Largest Abelian subgroup         CS      NOp   2
 Largest concise Abelian subgroup C1      NOp   1
                         Standard orientation:                         
 ---------------------------------------------------------------------
 Center     Atomic      Atomic             Coordinates (Angstroms)
 Number     Number       Type             X           Y           Z
 ---------------------------------------------------------------------
      1          8           0        0.037284    1.164684   -0.000000
      2         17           0        0.037284   -0.621933    0.000000
      3          1           0       -0.932090    1.255396   -0.000000
 ---------------------------------------------------------------------
 Rotational constants (GHZ):         571.4957274          13.7370536          13.4146065
 Standard basis: SVP (5D, 7F)
 There are    29 symmetry adapted cartesian basis functions of A'  symmetry.
 There are    10 symmetry adapted cartesian basis functions of A"  symmetry.
 There are    27 symmetry adapted basis functions of A'  symmetry.
 There are    10 symmetry adapted basis functions of A"  symmetry.
    37 basis functions,    69 primitive gaussians,    39 cartesian basis functions
    13 alpha electrons       13 beta electrons
       nuclear repulsion energy        48.8877449565 Hartrees.
 NAtoms=    3 NActive=    3 NUniq=    3 SFac= 1.00D+00 NAtFMM=   60 NAOKFM=F Big=F
 Integral buffers will be    131072 words long.
 Raffenetti 2 integral format.
 Two-electron integral symmetry is turned on.
 Nuclear repulsion after empirical dispersion term =       48.8861292859 Hartrees.
 One-electron integrals computed using PRISM.
 NBasis=    37 RedAO= T EigKep=  3.81D-02  NBF=    27    10
 NBsUse=    37 1.00D-06 EigRej= -1.00D+00 NBFU=    27    10
 Initial guess from the checkpoint file:  "/tmp/Gau-21376.chk"
 B after Tr=    -0.000000    0.000000   -0.000000
         Rot=    1.000000    0.000000    0.000000    0.000001 Ang=   0.00 deg.
 Initial guess orbital symmetries:
       Occupied  (A') (A') (A') (A') (A') (A") (A') (A') (A') (A')
                 (A") (A') (A")
       Virtual   (A') (A') (A') (A') (A') (A") (A') (A') (A") (A')
                 (A") (A') (A") (A') (A') (A') (A") (A') (A') (A")
                 (A') (A') (A") (A')
 Keep R1 ints in memory in symmetry-blocked form, NReq=7153137.
 Requested convergence on RMS density matrix=1.00D-08 within 128 cycles.
 Requested convergence on MAX density matrix=1.00D-06.
 Requested convergence on             energy=1.00D-06.
 No special actions if energy rises.
 SCF Done:  E(RB3LYP) =  -535.757910299     A.U. after    5 cycles
            NFock=  5  Conv=0.62D-08     -V/T= 2.0027
 Calling FoFJK, ICntrl=      2127 FMM=F ISym2X=1 I1Cent= 0 IOpClX= 0 NMat=1 NMatS=1 NMatT=0.
 ***** Axes restored to original set *****
 -------------------------------------------------------------------
 Center     Atomic                   Forces (Hartrees/Bohr)
 Number     Number              X              Y              Z
 -------------------------------------------------------------------
      1        8          -0.020119352    0.019127035    0.000505617
      2       17           0.013411697   -0.013371159    0.000238840
      3        1           0.006707655   -0.005755875   -0.000744457
 -------------------------------------------------------------------
 Cartesian Forces:  Max     0.020119352 RMS     0.011586788

 GradGradGradGradGradGradGradGradGradGradGradGradGradGradGradGradGradGrad
 Berny optimization.
 FormGI is forming the generalized inverse of G from B-inverse, IUseBI=4.
 Internal  Forces:  Max     0.018314293 RMS     0.014158345
 Search for a saddle point.
 Step number  10 out of a maximum of  100
 All quantities printed in internal units (Hartrees-Bohrs-Radians)
 Swapping is turned off.
 Update second derivatives using D2CorX and points    7    8   10
 The second derivative matrix:
                          R1        R2        A1
           R1           0.17554
           R2          -0.00953   0.50386
           A1           0.05767  -0.00168   0.18915
 ITU=  0  0  0  0
     Eigenvalues ---    0.12418   0.24019   0.50417
 Eigenvectors required to have negative eigenvalues:
                          R1        A1        R2
   1                   -0.74797   0.66354  -0.01584
 RFO step:  Lambda0=1.288470782D-01 Lambda= 0.00000000D+00.
 Linear search not attempted -- option 19 set.
 Iteration  1 RMS(Cart)=  0.00012457 RMS(Int)=  0.00000000
 Iteration  2 RMS(Cart)=  0.00000000 RMS(Int)=  0.00000000
 ClnCor:  largest displacement from symmetrization is 3.23D-15 for atom     3.
 Variable       Old X    -DE/DX   Delta X   Delta X   Delta X     New X
                                 (Linear)    (Quad)   (Total)
    R1        3.37622  -0.01831   0.00000   0.00025   0.00025   3.37647
    R2        1.83985  -0.00038   0.00000   0.00003   0.00003   1.83989
    A1        1.66410   0.01630   0.00000   0.00001   0.00001   1.66412
         Item               Value     Threshold  Converged?
 Maximum Force            0.018314     0.000450     NO 
 RMS     Force            0.014158     0.000300     NO 
 Maximum Displacement     0.000146     0.001800     YES
 RMS     Displacement     0.000125     0.001200     YES
 Predicted change in Energy= 4.439862D-06
 GradGradGradGradGradGradGradGradGradGradGradGradGradGradGradGradGradGrad

                          Input orientation:                          
 ---------------------------------------------------------------------
 Center     Atomic      Atomic             Coordinates (Angstroms)
 Number     Number       Type             X           Y           Z
 ---------------------------------------------------------------------
      1          8           0        4.150443    1.009227    3.138128
      2         17           0        2.727413    2.035189    3.477052
      3          1           0        4.458436    1.530332    2.375543
 ---------------------------------------------------------------------
                    Distance matrix (angstroms):
                    1          2          3
     1  O    0.000000
     2  Cl   1.786751   0.000000
     3  H    0.973625   2.112970   0.000000
 Stoichiometry    ClHO
 Framework group  CS[SG(ClHO)]
 Deg. of freedom     3
 Full point group                 CS      NOp   2
 Largest Abelian subgroup         CS      NOp   2
 Largest concise Abelian subgroup C1      NOp   1
                         Standard orientation:                         
 ---------------------------------------------------------------------
 Center     Atomic      Atomic             Coordinates (Angstroms)
 Number     Number       Type             X           Y           Z
 ---------------------------------------------------------------------
      1          8           0        0.037284    1.164771   -0.000000
      2         17           0        0.037284   -0.621980    0.000000
      3          1           0       -0.932105    1.255498    0.000000
 ---------------------------------------------------------------------
 Rotational constants (GHZ):         571.4779164          13.7349821          13.4126213
 Standard basis: SVP (5D, 7F)
 There are    29 symmetry adapted cartesian basis functions of A'  symmetry.
 There are    10 symmetry adapted cartesian basis functions of A"  symmetry.
 There are    27 symmetry adapted basis functions of A'  symmetry.
 There are    10 symmetry adapted basis functions of A"  symmetry.
    37 basis functions,    69 primitive gaussians,    39 cartesian basis functions
    13 alpha electrons       13 beta electrons
       nuclear repulsion energy        48.8843606945 Hartrees.
 NAtoms=    3 NActive=    3 NUniq=    3 SFac= 1.00D+00 NAtFMM=   60 NAOKFM=F Big=F
 Integral buffers will be    131072 words long.
 Raffenetti 2 integral format.
 Two-electron integral symmetry is turned on.
 Nuclear repulsion after empirical dispersion term =       48.8827450349 Hartrees.
 One-electron integrals computed using PRISM.
 NBasis=    37 RedAO= T EigKep=  3.81D-02  NBF=    27    10
 NBsUse=    37 1.00D-06 EigRej= -1.00D+00 NBFU=    27    10
 Initial guess from the checkpoint file:  "/tmp/Gau-21376.chk"
 B after Tr=     0.000000   -0.000000   -0.000000
         Rot=    1.000000   -0.000000   -0.000000    0.000002 Ang=   0.00 deg.
 Initial guess orbital symmetries:
       Occupied  (A') (A') (A') (A') (A') (A") (A') (A') (A') (A')
                 (A") (A') (A")
       Virtual   (A') (A') (A') (A') (A') (A") (A') (A') (A") (A')
                 (A") (A') (A") (A') (A') (A') (A") (A') (A') (A")
                 (A') (A') (A") (A')
 Keep R1 ints in memory in symmetry-blocked form, NReq=7153137.
 Requested convergence on RMS density matrix=1.00D-08 within 128 cycles.
 Requested convergence on MAX density matrix=1.00D-06.
 Requested convergence on             energy=1.00D-06.
 No special actions if energy rises.
 SCF Done:  E(RB3LYP) =  -535.757905859     A.U. after    6 cycles
            NFock=  6  Conv=0.28D-08     -V/T= 2.0027
 Calling FoFJK, ICntrl=      2127 FMM=F ISym2X=1 I1Cent= 0 IOpClX= 0 NMat=1 NMatS=1 NMatT=0.
 ***** Axes restored to original set *****
[...]
                          R1        R2        A1
           R1           0.17554
           R2          -0.00953   0.50386
           A1           0.05767  -0.00168   0.18915
 ITU=  0  0  0  0
     Eigenvalues ---    0.12418   0.24019   0.50417
 Eigenvectors required to have negative eigenvalues:
                          R1        A1        R2
   1                   -0.74797   0.66354  -0.01584
 RFO step:  Lambda0=1.288554699D-01 Lambda= 0.00000000D+00.
 Linear search not attempted -- option 19 set.
 Iteration  1 RMS(Cart)=  0.00000001 RMS(Int)=  0.00000000
 ClnCor:  largest displacement from symmetrization is 5.48D-15 for atom     1.
 Variable       Old X    -DE/DX   Delta X   Delta X   Delta X     New X
                                 (Linear)    (Quad)   (Total)
    R1        3.37647  -0.01836   0.00000   0.00000   0.00000   3.37647
    R2        1.83989  -0.00039   0.00000  -0.00000  -0.00000   1.83989
    A1        1.66411   0.01629   0.00000  -0.00000  -0.00000   1.66411
         Item               Value     Threshold  Converged?
 Maximum Force            0.018360     0.000450     NO 
 RMS     Force            0.014172     0.000300     NO 
 Maximum Displacement     0.000000     0.001800     YES
 RMS     Displacement     0.000000     0.001200     YES
 Predicted change in Energy= 2.439993D-10
 GradGradGradGradGradGradGradGradGradGradGradGradGradGradGradGradGradGrad

                          Input orientation:                          
 ---------------------------------------------------------------------
 Center     Atomic      Atomic             Coordinates (Angstroms)
 Number     Number       Type             X           Y           Z
 ---------------------------------------------------------------------
      1          8           0        4.150444    1.009226    3.138128
      2         17           0        2.727413    2.035190    3.477052
      3          1           0        4.458435    1.530333    2.375543
 ---------------------------------------------------------------------
                    Distance matrix (angstroms):
                    1          2          3
     1  O    0.000000
     2  Cl   1.786753   0.000000
     3  H    0.973625   2.112969   0.000000
 Stoichiometry    ClHO
 Framework group  CS[SG(ClHO)]
 Deg. of freedom     3
 Full point group                 CS      NOp   2
 Largest Abelian subgroup         CS      NOp   2
 Largest concise Abelian subgroup C1      NOp   1
                         Standard orientation:                         
 ---------------------------------------------------------------------
 Center     Atomic      Atomic             Coordinates (Angstroms)
 Number     Number       Type             X           Y           Z
 ---------------------------------------------------------------------
      1          8           0        0.037284    1.164772    0.000000
      2         17           0        0.037284   -0.621981   -0.000000
      3          1           0       -0.932105    1.255497    0.000000
 ---------------------------------------------------------------------
 Rotational constants (GHZ):         571.4776000          13.7349627          13.4126026
 Standard basis: SVP (5D, 7F)
 There are    29 symmetry adapted cartesian basis functions of A'  symmetry.
 There are    10 symmetry adapted cartesian basis functions of A"  symmetry.
 There are    27 symmetry adapted basis functions of A'  symmetry.
 There are    10 symmetry adapted basis functions of A"  symmetry.
    37 basis functions,    69 primitive gaussians,    39 cartesian basis functions
    13 alpha electrons       13 beta electrons
       nuclear repulsion energy        48.8843300227 Hartrees.
 NAtoms=    3 NActive=    3 NUniq=    3 SFac= 1.00D+00 NAtFMM=   60 NAOKFM=F Big=F
 Integral buffers will be    131072 words long.
 Raffenetti 2 integral format.
 Two-electron integral symmetry is turned on.
 Nuclear repulsion after empirical dispersion term =       48.8827143631 Hartrees.
 One-electron integrals computed using PRISM.
 NBasis=    37 RedAO= T EigKep=  3.81D-02  NBF=    27    10
 NBsUse=    37 1.00D-06 EigRej= -1.00D+00 NBFU=    27    10
 Initial guess from the checkpoint file:  "/tmp/Gau-21376.chk"
 B after Tr=    -0.000000    0.000000   -0.000000
         Rot=    1.000000   -0.000000    0.000000    0.000000 Ang=   0.00 deg.
 Initial guess orbital symmetries:
       Occupied  (A') (A') (A') (A') (A') (A") (A') (A') (A') (A')
                 (A") (A') (A")
       Virtual   (A') (A') (A') (A') (A') (A") (A') (A') (A") (A')
                 (A") (A') (A") (A') (A') (A') (A") (A') (A') (A")
                 (A') (A') (A") (A')
 Keep R1 ints in memory in symmetry-blocked form, NReq=7153137.
 Requested convergence on RMS density matrix=1.00D-08 within 128 cycles.
 Requested convergence on MAX density matrix=1.00D-06.
 Requested convergence on             energy=1.00D-06.
 No special actions if energy rises.
 SCF Done:  E(RB3LYP) =  -535.757905777     A.U. after    1 cycles
            NFock=  1  Conv=0.17D-08     -V/T= 2.0027
 Calling FoFJK, ICntrl=      2127 FMM=F ISym2X=1 I1Cent= 0 IOpClX= 0 NMat=1 NMatS=1 NMatT=0.
 ***** Axes restored to original set *****
 -------------------------------------------------------------------
 Center     Atomic                   Forces (Hartrees/Bohr)
 Number     Number              X              Y              Z
 -------------------------------------------------------------------
      1        8          -0.020145419    0.019151032    0.000506999
      2       17           0.013449227   -0.013393872    0.000225872
      3        1           0.006696192   -0.005757160   -0.000732871
 -------------------------------------------------------------------
 Cartesian Forces:  Max     0.020145419 RMS     0.011603191

 GradGradGradGradGradGradGradGradGradGradGradGradGradGradGradGradGradGrad
 Berny optimization.
 Internal  Forces:  Max     0.018359614 RMS     0.014171508
 Search for a saddle point.
 Step number  99 out of a maximum of  100
 All quantities printed in internal units (Hartrees-Bohrs-Radians)
 Swapping is turned off.
 Update second derivatives using D2CorX and points   99
 The second derivative matrix:
                          R1        R2        A1
           R1           0.17554
           R2          -0.00953   0.50386
           A1           0.05767  -0.00168   0.18915
 ITU=  0  0  0  0
     Eigenvalues ---    0.12418   0.24019   0.50417
 Eigenvectors required to have negative eigenvalues:
                          R1        A1        R2
   1                   -0.74797   0.66354  -0.01584
 RFO step:  Lambda0=1.288554717D-01 Lambda= 0.00000000D+00.
 Linear search not attempted -- option 19 set.
 Iteration  1 RMS(Cart)=  0.00000001 RMS(Int)=  0.00000000
 ClnCor:  largest displacement from symmetrization is 3.20D-15 for atom     3.
 Variable       Old X    -DE/DX   Delta X   Delta X   Delta X     New X
                                 (Linear)    (Quad)   (Total)
    R1        3.37647  -0.01836   0.00000   0.00000   0.00000   3.37647
    R2        1.83989  -0.00039   0.00000   0.00000   0.00000   1.83989
    A1        1.66411   0.01629   0.00000  -0.00000  -0.00000   1.66411
         Item               Value     Threshold  Converged?
 Maximum Force            0.018360     0.000450     NO 
 RMS     Force            0.014172     0.000300     NO 
 Maximum Displacement     0.000000     0.001800     YES
 RMS     Displacement     0.000000     0.001200     YES
 Predicted change in Energy= 5.762526D-10
 GradGradGradGradGradGradGradGradGradGradGradGradGradGradGradGradGradGrad

                          Input orientation:                          
 ---------------------------------------------------------------------
 Center     Atomic      Atomic             Coordinates (Angstroms)
 Number     Number       Type             X           Y           Z
 ---------------------------------------------------------------------
      1          8           0        4.150444    1.009226    3.138128
      2         17           0        2.727413    2.035190    3.477052
      3          1           0        4.458435    1.530333    2.375543
 ---------------------------------------------------------------------
                    Distance matrix (angstroms):
                    1          2          3
     1  O    0.000000
     2  Cl   1.786753   0.000000
     3  H    0.973625   2.112969   0.000000
 Stoichiometry    ClHO
 Framework group  CS[SG(ClHO)]
 Deg. of freedom     3
 Full point group                 CS      NOp   2
 Largest Abelian subgroup         CS      NOp   2
 Largest concise Abelian subgroup C1      NOp   1
                         Standard orientation:                         
 ---------------------------------------------------------------------
 Center     Atomic      Atomic             Coordinates (Angstroms)
 Number     Number       Type             X           Y           Z
 ---------------------------------------------------------------------
      1          8           0        0.037284    1.164772    0.000000
      2         17           0        0.037284   -0.621981   -0.000000
      3          1           0       -0.932105    1.255497    0.000000
 ---------------------------------------------------------------------
 Rotational constants (GHZ):         571.4775829          13.7349626          13.4126025
 Standard basis: SVP (5D, 7F)
 There are    29 symmetry adapted cartesian basis functions of A'  symmetry.
 There are    10 symmetry adapted cartesian basis functions of A"  symmetry.
 There are    27 symmetry adapted basis functions of A'  symmetry.
 There are    10 symmetry adapted basis functions of A"  symmetry.
    37 basis functions,    69 primitive gaussians,    39 cartesian basis functions
    13 alpha electrons       13 beta electrons
       nuclear repulsion energy        48.8843298294 Hartrees.
 NAtoms=    3 NActive=    3 NUniq=    3 SFac= 1.00D+00 NAtFMM=   60 NAOKFM=F Big=F
 Integral buffers will be    131072 words long.
 Raffenetti 2 integral format.
 Two-electron integral symmetry is turned on.
 Nuclear repulsion after empirical dispersion term =       48.8827141698 Hartrees.
 One-electron integrals computed using PRISM.
 NBasis=    37 RedAO= T EigKep=  3.81D-02  NBF=    27    10
 NBsUse=    37 1.00D-06 EigRej= -1.00D+00 NBFU=    27    10
 Initial guess from the checkpoint file:  "/tmp/Gau-21376.chk"
 B after Tr=     0.000000   -0.000000    0.000000
         Rot=    1.000000    0.000000   -0.000000   -0.000000 Ang=   0.00 deg.
 Initial guess orbital symmetries:
       Occupied  (A') (A') (A') (A') (A') (A") (A') (A') (A') (A')
                 (A") (A') (A")
       Virtual   (A') (A') (A') (A') (A') (A") (A') (A') (A") (A')
                 (A") (A') (A") (A') (A') (A') (A") (A') (A') (A")
                 (A') (A') (A") (A')
 Keep R1 ints in memory in symmetry-blocked form, NReq=7153137.
 Requested convergence on RMS density matrix=1.00D-08 within 128 cycles.
 Requested convergence on MAX density matrix=1.00D-06.
 Requested convergence on             energy=1.00D-06.
 No special actions if energy rises.
 SCF Done:  E(RB3LYP) =  -535.757905776     A.U. after    1 cycles
            NFock=  1  Conv=0.38D-08     -V/T= 2.0027
 Calling FoFJK, ICntrl=      2127 FMM=F ISym2X=1 I1Cent= 0 IOpClX= 0 NMat=1 NMatS=1 NMatT=0.
 ***** Axes restored to original set *****
 -------------------------------------------------------------------
 Center     Atomic                   Forces (Hartrees/Bohr)
 Number     Number              X              Y              Z
 -------------------------------------------------------------------
      1        8          -0.020145401    0.019151046    0.000506970
      2       17           0.013449220   -0.013393866    0.000225872
      3        1           0.006696181   -0.005757181   -0.000732842
 -------------------------------------------------------------------
 Cartesian Forces:  Max     0.020145401 RMS     0.011603189

 GradGradGradGradGradGradGradGradGradGradGradGradGradGradGradGradGradGrad
 Berny optimization.
 Internal  Forces:  Max     0.018359605 RMS     0.014171505
 Search for a saddle point.
 Step number 100 out of a maximum of  100
 All quantities printed in internal units (Hartrees-Bohrs-Radians)
 Swapping is turned off.
 Update second derivatives using D2CorX and points  100
 The second derivative matrix:
                          R1        R2        A1
           R1           0.17554
           R2          -0.00953   0.50386
           A1           0.05767  -0.00168   0.18915
 ITU=  0  0  0  0
     Eigenvalues ---    0.12418   0.24019   0.50417
 Eigenvectors required to have negative eigenvalues:
                          R1        A1        R2
   1                   -0.74797   0.66354  -0.01584
 RFO step:  Lambda0=1.288554697D-01 Lambda= 0.00000000D+00.
 Linear search not attempted -- option 19 set.
 Iteration  1 RMS(Cart)=  0.00000003 RMS(Int)=  0.00000000
 ClnCor:  largest displacement from symmetrization is 2.55D-15 for atom     3.
 Variable       Old X    -DE/DX   Delta X   Delta X   Delta X     New X
                                 (Linear)    (Quad)   (Total)
    R1        3.37647  -0.01836   0.00000   0.00000   0.00000   3.37647
    R2        1.83989  -0.00039   0.00000  -0.00000  -0.00000   1.83989
    A1        1.66411   0.01629   0.00000  -0.00000  -0.00000   1.66411
         Item               Value     Threshold  Converged?
 Maximum Force            0.018360     0.000450     NO 
 RMS     Force            0.014172     0.000300     NO 
 Maximum Displacement     0.000000     0.001800     YES
 RMS     Displacement     0.000000     0.001200     YES
 Predicted change in Energy= 1.280639D-09
 Optimization stopped.
    -- Number of steps exceeded,  NStep= 100
    -- Flag reset to prevent archiving.
                           ----------------------------
                           ! Non-Optimized Parameters !
                           ! (Angstroms and Degrees)  !
 --------------------------                            --------------------------
 ! Name  Definition              Value          Derivative Info.                !
 --------------------------------------------------------------------------------
 ! R1    R(1,2)                  1.7868         -DE/DX =   -0.0184              !
 ! R2    R(1,3)                  0.9736         -DE/DX =   -0.0004              !
 ! A1    A(2,1,3)               95.3468         -DE/DX =    0.0163              !
 --------------------------------------------------------------------------------
 GradGradGradGradGradGradGradGradGradGradGradGradGradGradGradGradGradGrad

                          Input orientation:                          
 ---------------------------------------------------------------------
 Center     Atomic      Atomic             Coordinates (Angstroms)
 Number     Number       Type             X           Y           Z
 ---------------------------------------------------------------------
      1          8           0        4.150444    1.009226    3.138128
      2         17           0        2.727413    2.035190    3.477052
      3          1           0        4.458435    1.530333    2.375543
 ---------------------------------------------------------------------
                    Distance matrix (angstroms):
                    1          2          3
     1  O    0.000000
     2  Cl   1.786753   0.000000
     3  H    0.973625   2.112969   0.000000
 Stoichiometry    ClHO
 Framework group  CS[SG(ClHO)]
 Deg. of freedom     3
 Full point group                 CS      NOp   2
 Largest Abelian subgroup         CS      NOp   2
 Largest concise Abelian subgroup C1      NOp   1
                         Standard orientation:                         
 ---------------------------------------------------------------------
 Center     Atomic      Atomic             Coordinates (Angstroms)
 Number     Number       Type             X           Y           Z
 ---------------------------------------------------------------------
      1          8           0        0.037284    1.164772    0.000000
      2         17           0        0.037284   -0.621981   -0.000000
      3          1           0       -0.932105    1.255497    0.000000
 ---------------------------------------------------------------------
 Rotational constants (GHZ):         571.4775829          13.7349626          13.4126025

 **********************************************************************

            Population analysis using the SCF density.

 **********************************************************************

 Orbital symmetries:
       Occupied  (A') (A') (A') (A') (A') (A") (A') (A') (A') (A')
                 (A") (A') (A")
       Virtual   (A') (A') (A') (A') (A') (A") (A') (A') (A") (A')
                 (A") (A') (A") (A') (A') (A') (A") (A') (A') (A")
                 (A') (A') (A") (A')
 The electronic state is 1-A'.
 Alpha  occ. eigenvalues -- -101.54211 -19.20364  -9.49349  -7.26676  -7.25070
 Alpha  occ. eigenvalues --   -7.25035  -1.03519  -0.79322  -0.51020  -0.43431
 Alpha  occ. eigenvalues --   -0.39142  -0.31922  -0.28657
 Alpha virt. eigenvalues --   -0.09309   0.05725   0.46190   0.55514   0.68558
 Alpha virt. eigenvalues --    0.69545   0.70435   0.75897   0.76112   0.83768
 Alpha virt. eigenvalues --    0.84283   0.93284   0.99912   1.01409   1.09659
 Alpha virt. eigenvalues --    1.36569   1.40407   1.51976   2.15876   2.60825
 Alpha virt. eigenvalues --    2.83057   2.91151   2.92394   3.64029
          Condensed to atoms (all electrons):
               1          2          3
     1  O    7.852003   0.127685   0.300737
     2  Cl   0.127685  16.823543  -0.021103
     3  H    0.300737  -0.021103   0.509816
 Mulliken charges:
               1
     1  O   -0.280425
     2  Cl   0.069875
     3  H    0.210550
 Sum of Mulliken charges =   0.00000
 Mulliken charges with hydrogens summed into heavy atoms:
               1
     1  O   -0.069875
     2  Cl   0.069875
 Electronic spatial extent (au):  <R**2>=            109.5957
 Charge=              0.0000 electrons
 Dipole moment (field-independent basis, Debye):
    X=             -1.6637    Y=             -0.0626    Z=             -0.0000  Tot=              1.6649
 Quadrupole moment (field-independent basis, Debye-Ang):
   XX=            -16.5016   YY=            -16.6349   ZZ=            -18.6416
   XY=             -2.3861   XZ=             -0.0000   YZ=             -0.0000
 Traceless Quadrupole moment (field-independent basis, Debye-Ang):
   XX=              0.7578   YY=              0.6244   ZZ=             -1.3822
   XY=             -2.3861   XZ=             -0.0000   YZ=             -0.0000
 Octapole moment (field-independent basis, Debye-Ang**2):
  XXX=             -2.2342  YYY=              0.0023  ZZZ=              0.0000  XYY=             -3.2507
  XXY=              3.2120  XXZ=              0.0000  XZZ=             -0.2433  YZZ=              0.5929
  YYZ=             -0.0000  XYZ=             -0.0000
 Hexadecapole moment (field-independent basis, Debye-Ang**3):
 XXXX=            -16.8197 YYYY=            -82.8553 ZZZZ=            -16.6688 XXXY=             -0.4091
 XXXZ=             -0.0000 YYYX=             -2.5103 YYYZ=             -0.0000 ZZZX=             -0.0000
 ZZZY=             -0.0000 XXYY=            -15.7455 XXZZ=             -5.8922 YYZZ=            -18.6768
 XXYZ=             -0.0000 YYXZ=             -0.0000 ZZXY=              0.5060
 N-N= 4.888271416976D+01 E-N=-1.370700998691D+03  KE= 5.343132739089D+02
 Symmetry A'   KE= 4.835605534070D+02
 Symmetry A"   KE= 5.075272050190D+01


 WOMEN HOLD UP HALF THE SKY. -- MAO TSE TUNG
 Error termination request processed by link 9999.
 Error termination via Lnk1e in /share/apps/g16.a03/g16/l9999.exe at Thu Mar  6 16:39:58 2025.
 Job cpu time:       0 days  0 hours 13 minutes 16.9 seconds.
 Elapsed time:       0 days  0 hours  1 minutes 43.1 seconds.
 File lengths (MBytes):  RWF=      6 Int=      0 D2E=      0 Chk=      1 Scr=      1
