70
 energy: -143.145964094147 gnorm: 0.107367931434 xtb: 6.6.1 (8d0f1dd)
O    -3.47425794    -0.97443492     2.41942302
H    -4.35827075    -1.01038859     2.78897235
H    -3.28774854    -1.73448156     1.86545368
O    -1.57683651    -0.53528601    -0.65149328
H    -1.90086039    -0.38482099    -1.54127280
H    -2.17217257    -1.17222312    -0.25246424
O    -1.11432573    -0.27977527     3.60025920
H    -0.64861484    -1.10587317     3.74173085
H    -1.97084368    -0.57525754     3.28656255
O    -2.68102241    -3.01386988     0.78971634
H    -3.32217747    -3.35150825     0.16181547
H    -1.91712135    -3.50386751     0.48036870
O     0.48210152    -2.76398938    -2.69290355
H     0.00996850    -1.94846593    -2.86996596
H     1.22642784    -2.85770282    -3.29000842
O     0.34853011    -2.38445249     0.03358325
H    -0.14267931    -1.62533222    -0.28545859
H     1.10444177    -2.57576807    -0.52439109
O    -2.46633061    -3.44670806    -2.68799559
H    -1.59919350    -3.64158315    -2.32822571
H    -2.41169882    -3.58148063    -3.63572462
O    -4.77604824    -3.52069861    -0.72033586
H    -4.55507036    -2.75090804    -1.24752598
H    -4.55456860    -4.27107487    -1.27460905
O     0.02719176     0.12347105    -3.25127858
H    -0.13167631     0.15467434    -2.30622521
H     0.09555103     0.98400555    -3.66858568
O    -2.88988908     0.47463099    -2.84480140
H    -3.65554397     0.73060838    -2.32751376
H    -2.36522037     1.24389242    -3.07348868
O    -0.94333644     2.63650351    -2.90470554
Cl    -0.77644796     4.26206774    -3.38517551
H    -0.84940026     2.53490965    -1.95001130
O     2.68394185     3.65219150     3.34241695
Cl     3.62569134     4.01462585     1.97022385
H     1.81846052     3.46430474     2.96001959
O    -0.08028898    -2.59669724     2.64045222
Cl     0.96650971    -3.80411789     3.22995345
H     0.09007969    -2.66572471     1.69345916
O     0.80260804     1.41011181     4.02508844
Cl     1.34159572     1.79233949     5.59497860
H    -0.04876634     0.95691670     4.00601149
C     5.11222364     0.48933099    -0.03087812
C     4.73082550     0.61199661     1.29961467
C     3.38832958     0.62551909     1.62704519
C     2.39555752     0.50955200     0.64834905
C     2.74219121     0.39829018    -0.69789067
C     4.10273404     0.34806973    -0.97860867
H     5.51001122     0.86855029     2.00522414
H     3.20824345     0.74847473     2.68932877
C    -2.10649584     2.46651132     0.87630500
C    -2.06589632     3.49648133    -0.06677032
C    -3.34887903     2.15054812     1.43353793
C    -3.21564652     4.17524660    -0.45020451
H    -1.11287162     3.79884520    -0.47011395
C    -4.47144113     2.86744652     1.05278420
C    -4.44452640     3.90276827     0.13003445
H    -3.15763840     4.99363515    -1.15604479
H    -5.40351022     2.61197996     1.53937967
Cl     6.80950475     0.44859938    -0.38128678
Cl    -5.81340338     4.88504071    -0.32155902
N     1.03883073     0.51414602     1.00724504
H     0.87624717     0.39918899     1.99522592
C     0.06055389     1.24292374     0.34946716
O     0.23301782     1.54254108    -0.80799559
N    -0.98883886     1.65478809     1.14783810
H    -1.01062509     1.08896193     1.98163317
H    -3.52528653     1.32493955     2.11520866
H     2.08127608     0.25735645    -1.53770840
Cl     4.55177597     0.21759380    -2.64794584
