70
 energy: -143.154577842867 gnorm: 0.105498078356 xtb: 6.6.1 (8d0f1dd)
O     0.46705690    -2.97418777     3.24743414
H    -0.19753327    -3.16967155     2.58452840
H     1.29154894    -2.90658588     2.76268518
O    -1.49961975     1.34572549     1.22065526
H    -1.25271617     1.55039716     2.12425192
H    -2.36521973     0.93332456     1.22111056
O    -2.37808639    -3.35091517     0.29999711
H    -1.76605814    -2.63024492     0.45935341
H    -2.06132437    -3.99246504    -0.33829275
O    -0.73829297    -1.41722371     1.20632022
H    -0.77234115    -0.47203487     1.36379323
H     0.11236904    -1.52352893     0.77688824
O    -3.17132087    -0.62445422     2.89216312
H    -4.01351769    -1.07946725     2.83732838
H    -2.46681796    -1.24759415     2.70585588
O     3.14797013    -1.36270237    -2.25762890
H     2.84533766    -0.47073360    -2.07834343
H     4.08430857    -1.49684373    -2.41452338
O    -0.04383163    -2.20300053    -2.22502911
H     0.75641511    -2.29124751    -2.74575463
H    -0.29476753    -1.27767711    -2.23712584
O    -0.20043396    -0.41104395     4.03468471
H    -0.54274024    -0.28452724     4.92134029
H     0.01413910    -1.34259551     3.96047830
O     1.39274368     0.65154358    -2.01470870
H     1.49377132     1.57315389    -1.77023693
H     0.78797632     0.55531470    -2.75249882
O    -1.42841901     0.19021845    -1.52545759
H    -2.33072585    -0.01560131    -1.27482057
H    -1.05408861     0.57588682    -0.73143305
O    -3.86515291    -1.02475812    -0.02804137
Cl    -5.51131530    -1.27361057     0.33165859
H    -3.38956916    -1.86363747    -0.05427015
O     0.57298683     2.14875573     3.27697701
Cl     0.44366171     3.15075295     4.64826882
H     0.49590576     1.22539126     3.54538652
O     2.26844884    -2.52031620     0.15615436
Cl     1.72462138    -4.13253233     0.07757522
H     2.39602400    -2.23502707    -0.75649059
O    -2.84303242     1.60337609     4.47482100
Cl    -3.70450733     2.90841483     3.79962051
H    -3.19750976     0.76990707     4.14276185
C     5.09967670    -0.18984478     0.48218243
C     4.19991199    -0.34198604     1.53003689
C     3.15995864     0.55418752     1.68833693
C     3.03539872     1.61353664     0.78326506
C     3.90322526     1.77372564    -0.29660162
C     4.86163840     0.78424292    -0.48306787
H     4.30207637    -1.16988779     2.21922193
H     2.50524037     0.49854893     2.55103259
C    -0.88608966     3.99111448    -0.84936304
C    -0.49061845     4.32615130    -2.14675671
C    -2.24984835     4.05748305    -0.55000600
C    -1.47383857     4.59050947    -3.09177656
H     0.56268124     4.26996638    -2.36984645
C    -3.22079569     4.50950766    -1.42863980
C    -2.81087757     4.69256985    -2.74109472
H    -1.24070477     4.66768840    -4.14582934
H    -4.28457322     4.56911146    -1.23991822
Cl     6.29896027    -1.37675044     0.08446096
Cl    -4.09337031     4.96101867    -3.89251451
N     1.95157459     2.49706339     0.90259944
H     1.41427905     2.39901596     1.74962656
C     1.34882611     3.10263806    -0.18863280
O     1.92975077     3.28299869    -1.23229506
N     0.04005214     3.46165997     0.06917991
H    -0.25994049     3.32743437     1.02198417
H    -2.56459075     3.78596292     0.45231037
H     3.80812134     2.56457155    -1.02288183
Cl     5.96046861     0.70919015    -1.82183166
