70
 energy: -143.142268277488 gnorm: 0.118983438249 xtb: 6.6.1 (8d0f1dd)
O    -3.20010773     0.26017685     0.80970753
H    -3.82468672     0.68636632     1.39928504
H    -3.69214864    -0.39171155     0.30743673
O    -4.99667655    -0.40136306    -2.58657583
H    -4.11817174    -0.39468549    -2.97066371
H    -5.49644716     0.35037612    -2.90977177
O    -0.51781078     0.48491790     1.59300451
H    -0.25403790    -0.41882676     1.41132321
H    -1.46391453     0.51293538     1.43989973
O    -4.85446238    -1.74480618    -0.26424622
H    -4.99234785    -1.24166587    -1.06871897
H    -5.68836634    -1.57938901     0.17912699
O     0.38754077    -1.26173084    -3.57494247
H     0.21999493    -1.14210393    -2.63848266
H     1.27602506    -0.97867346    -3.79812912
O     0.47115571    -3.65928554    -1.35159246
H     0.51506305    -2.99629118    -2.04285840
H    -0.13131817    -4.33879825    -1.65920773
O    -1.30782396    -4.80306388    -3.29551631
H    -1.95462800    -4.13545464    -3.06039955
H    -1.82822251    -5.57000057    -3.54114213
O    -2.98461070    -3.07948371    -2.26731628
H    -2.88900584    -2.95267189    -1.32173887
H    -2.92276891    -2.15638757    -2.51912101
O    -1.11243761     0.24350893    -1.29294940
H    -0.38928558     0.78751821    -0.97602095
H    -1.96549720     0.48910832    -0.93058481
O    -2.53049789    -0.35871872    -3.57511564
H    -1.90910964    -0.11973422    -2.88511463
H    -2.04947290    -0.97924520    -4.12547929
O    -0.84999313     1.75133656    -4.06644708
Cl    -1.20037231     3.41733663    -4.01315157
H    -0.09665191     1.73002344    -3.46427669
O     1.46624270     3.87838459     3.68542356
Cl     2.31503599     5.22952529     4.28135428
H     1.37520804     3.27722092     4.43435750
O     0.65440455    -2.16222465     0.84665157
Cl     2.24090267    -2.32381520     1.44504611
H     0.51165264    -2.65465200     0.02950817
O     0.67385048     1.21473646     4.23512785
Cl     0.61404311    -0.20029561     5.18131397
H     0.43603799     0.81758044     3.38878254
C     5.04723728    -0.39300362     0.77629948
C     5.03709116     0.36517676     1.94068002
C     3.94217779     1.18173255     2.15065685
C     3.01933309     1.34014548     1.11135234
C     3.15197019     0.67266808    -0.10593020
C     4.16151153    -0.26512534    -0.28969970
H     5.75862434     0.11483612     2.70720094
H     4.01283788     1.83550579     3.01296954
C    -1.30208026     3.57144194     1.22892597
C    -2.09508662     3.15354928     0.15729911
C    -1.97111243     3.96921825     2.38997168
C    -3.48383729     3.17356742     0.18260597
H    -1.58990298     2.88307415    -0.75593620
C    -3.35607297     3.98961207     2.41300987
C    -4.12547097     3.68444596     1.29991378
H    -4.01839059     2.81943368    -0.68927549
H    -3.89803065     4.27334101     3.30551804
Cl     6.28078744    -1.59985864     0.61178980
Cl    -5.81637851     4.07589435     1.12607535
N     1.99125755     2.27520183     1.30696749
H     1.96887709     2.65611377     2.23979113
C     0.93836444     2.67662425     0.50006580
O     0.79801154     2.29967441    -0.63898829
N     0.10403133     3.50340714     1.22709520
H     0.43109546     3.72626410     2.15403203
H    -1.35983185     4.31149432     3.21858934
H     2.43888280     0.81499854    -0.90167724
Cl     4.53225132    -0.94746398    -1.83964008
