 Entering Gaussian System, Link 0=g16
 Input=ts.gjf
 Output=ts.log
 Initial command:
 /share/apps/g16.a03/g16/l1.exe "/tmp/Gau-16531.inp" -scrdir="/tmp/"
 Entering Link 1 = /share/apps/g16.a03/g16/l1.exe PID=     16538.
  
 Copyright (c) 1988,1990,1992,1993,1995,1998,2003,2009,2016,
            Gaussian, Inc.  All Rights Reserved.
  
 This is part of the Gaussian(R) 16 program.  It is based on
 the Gaussian(R) 09 system (copyright 2009, Gaussian, Inc.),
 the Gaussian(R) 03 system (copyright 2003, Gaussian, Inc.),
 the Gaussian(R) 98 system (copyright 1998, Gaussian, Inc.),
 the Gaussian(R) 94 system (copyright 1995, Gaussian, Inc.),
 the Gaussian 92(TM) system (copyright 1992, Gaussian, Inc.),
 the Gaussian 90(TM) system (copyright 1990, Gaussian, Inc.),
 the Gaussian 88(TM) system (copyright 1988, Gaussian, Inc.),
 the Gaussian 86(TM) system (copyright 1986, Carnegie Mellon
 University), and the Gaussian 82(TM) system (copyright 1983,
 Carnegie Mellon University). Gaussian is a federally registered
 trademark of Gaussian, Inc.
  
 This software contains proprietary and confidential information,
 including trade secrets, belonging to Gaussian, Inc.
  
 This software is provided under written license and may be
 used, copied, transmitted, or stored only in accord with that
 written license.
  
 The following legend is applicable only to US Government
 contracts under FAR:
  
                    RESTRICTED RIGHTS LEGEND
  
 Use, reproduction and disclosure by the US Government is
 subject to restrictions as set forth in subparagraphs (a)
 and (c) of the Commercial Computer Software - Restricted
 Rights clause in FAR 52.227-19.
  
 Gaussian, Inc.
 340 Quinnipiac St., Bldg. 40, Wallingford CT 06492
  
  
 ---------------------------------------------------------------
 Warning -- This program may not be used in any manner that
 competes with the business of Gaussian, Inc. or will provide
 assistance to any competitor of Gaussian, Inc.  The licensee
 of this program is prohibited from giving any competitor of
 Gaussian, Inc. access to this program.  By using this program,
 the user acknowledges that Gaussian, Inc. is engaged in the
 business of creating and licensing software in the field of
 computational chemistry and represents and warrants to the
 licensee that it is not a competitor of Gaussian, Inc. and that
 it will not use this program in any manner prohibited above.
 ---------------------------------------------------------------
  

 Cite this work as:
 Gaussian 16, Revision A.03,
 M. J. Frisch, G. W. Trucks, H. B. Schlegel, G. E. Scuseria, 
 M. A. Robb, J. R. Cheeseman, G. Scalmani, V. Barone, 
 G. A. Petersson, H. Nakatsuji, X. Li, M. Caricato, A. V. Marenich, 
 J. Bloino, B. G. Janesko, R. Gomperts, B. Mennucci, H. P. Hratchian, 
 J. V. Ortiz, A. F. Izmaylov, J. L. Sonnenberg, D. Williams-Young, 
 F. Ding, F. Lipparini, F. Egidi, J. Goings, B. Peng, A. Petrone, 
 T. Henderson, D. Ranasinghe, V. G. Zakrzewski, J. Gao, N. Rega, 
 G. Zheng, W. Liang, M. Hada, M. Ehara, K. Toyota, R. Fukuda, 
 J. Hasegawa, M. Ishida, T. Nakajima, Y. Honda, O. Kitao, H. Nakai, 
 T. Vreven, K. Throssell, J. A. Montgomery, Jr., J. E. Peralta, 
 F. Ogliaro, M. J. Bearpark, J. J. Heyd, E. N. Brothers, K. N. Kudin, 
 V. N. Staroverov, T. A. Keith, R. Kobayashi, J. Normand, 
 K. Raghavachari, A. P. Rendell, J. C. Burant, S. S. Iyengar, 
 J. Tomasi, M. Cossi, J. M. Millam, M. Klene, C. Adamo, R. Cammi, 
 J. W. Ochterski, R. L. Martin, K. Morokuma, O. Farkas, 
 J. B. Foresman, and D. J. Fox, Gaussian, Inc., Wallingford CT, 2016.
 
 ******************************************
 Gaussian 16:  EM64L-G16RevA.03 25-Dec-2016
                 6-Mar-2025 
 ******************************************
 %nproc=8
 Will use up to    8 processors via shared memory.
 %mem=4000MB
 --------------------------------------------------------------------
 #opt=(noeigen,calcfc,ts,recalc=5,maxcyc=200) freq B3LYP/SVP em=GD3BJ
 --------------------------------------------------------------------
 1/5=1,6=200,10=4,11=1,18=20,26=3,38=1,71=5/1,3;
 2/9=110,12=2,17=6,18=5,40=1/2;
 3/5=18,7=101,11=2,25=1,30=1,71=2,74=-5,124=41,140=1/1,2,3;
 4//1;
 5/5=2,38=5/2;
 8/6=4,10=90,11=11/1;
 11/6=1,8=1,9=11,15=111,16=1/1,2,10;
 10/6=1,13=1/2;
 6/7=2,8=2,9=2,10=2,28=1/1;
 7/10=1,18=20,25=1/1,2,3,16;
 1/5=1,6=200,10=4,11=1,18=20,26=3,71=5/3(2);
 2/9=110/2;
 99//99;
 2/9=110/2;
 3/5=18,7=101,11=2,25=1,30=1,71=1,74=-5,124=41/1,2,3;
 4/5=5,16=3,69=1/1;
 5/5=2,38=5/2;
 7//1,2,3,16;
 1/5=1,6=200,11=1,18=20,26=3,71=5/3(-5);
 2/9=110/2;
 6/7=2,8=2,9=2,10=2,19=2,28=1/1;
 99/9=1/99;
 -----------
 ts-1521.gjf
 -----------
 Symbolic Z-matrix:
 Charge =  0 Multiplicity = 1
 O                     0.17685   0.81044   4.89888 
 Cl                    0.29741   2.70352   5.05161 
 H                    -0.71843   0.76139   4.63718 
 

 GradGradGradGradGradGradGradGradGradGradGradGradGradGradGradGradGradGrad
 Berny optimization.
 Initialization pass.
                           ----------------------------
                           !    Initial Parameters    !
                           ! (Angstroms and Degrees)  !
 --------------------------                            --------------------------
 ! Name  Definition              Value          Derivative Info.                !
 --------------------------------------------------------------------------------
 ! R1    R(1,2)                  1.903          calculate D2E/DX2 analytically  !
 ! R2    R(1,3)                  0.934          calculate D2E/DX2 analytically  !
 ! A1    A(2,1,3)               97.7841         calculate D2E/DX2 analytically  !
 --------------------------------------------------------------------------------
 Trust Radius=3.00D-01 FncErr=1.00D-07 GrdErr=1.00D-06 EigMax=2.50D+02 EigMin=1.00D-04
 Number of steps in this run=    100 maximum allowed number of steps=    100.
 Search for a saddle point of order  1.
 GradGradGradGradGradGradGradGradGradGradGradGradGradGradGradGradGradGrad

                          Input orientation:                          
 ---------------------------------------------------------------------
 Center     Atomic      Atomic             Coordinates (Angstroms)
 Number     Number       Type             X           Y           Z
 ---------------------------------------------------------------------
      1          8           0        0.176852    0.810439    4.898880
      2         17           0        0.297410    2.703515    5.051607
      3          1           0       -0.718430    0.761394    4.637179
 ---------------------------------------------------------------------
                    Distance matrix (angstroms):
                    1          2          3
     1  O    0.000000
     2  Cl   1.903049   0.000000
     3  H    0.934036   2.230587   0.000000
 Stoichiometry    ClHO
 Framework group  CS[SG(ClHO)]
 Deg. of freedom     3
 Full point group                 CS      NOp   2
 Largest Abelian subgroup         CS      NOp   2
 Largest concise Abelian subgroup C1      NOp   1
                         Standard orientation:                         
 ---------------------------------------------------------------------
 Center     Atomic      Atomic             Coordinates (Angstroms)
 Number     Number       Type             X           Y           Z
 ---------------------------------------------------------------------
      1          8           0        0.035593    1.239436    0.000000
      2         17           0        0.035593   -0.663614   -0.000000
      3          1           0       -0.889836    1.365943    0.000000
 ---------------------------------------------------------------------
 Rotational constants (GHZ):         628.1906398          12.0857621          11.8576331
 Standard basis: SVP (5D, 7F)
 There are    29 symmetry adapted cartesian basis functions of A'  symmetry.
 There are    10 symmetry adapted cartesian basis functions of A"  symmetry.
 There are    27 symmetry adapted basis functions of A'  symmetry.
 There are    10 symmetry adapted basis functions of A"  symmetry.
    37 basis functions,    69 primitive gaussians,    39 cartesian basis functions
    13 alpha electrons       13 beta electrons
       nuclear repulsion energy        46.3826708475 Hartrees.
 NAtoms=    3 NActive=    3 NUniq=    3 SFac= 1.00D+00 NAtFMM=   60 NAOKFM=F Big=F
 Integral buffers will be    131072 words long.
 Raffenetti 2 integral format.
 Two-electron integral symmetry is turned on.
 Nuclear repulsion after empirical dispersion term =       46.3810660279 Hartrees.
 One-electron integrals computed using PRISM.
 NBasis=    37 RedAO= T EigKep=  4.19D-02  NBF=    27    10
 NBsUse=    37 1.00D-06 EigRej= -1.00D+00 NBFU=    27    10
 ExpMin= 1.22D-01 ExpMax= 1.04D+04 ExpMxC= 1.57D+03 IAcc=3 IRadAn=         5 AccDes= 0.00D+00
 Harris functional with IExCor=  402 and IRadAn=       5 diagonalized for initial guess.
 HarFok:  IExCor=  402 AccDes= 0.00D+00 IRadAn=         5 IDoV= 1 UseB2=F ITyADJ=14
 ICtDFT=  3500011 ScaDFX=  1.000000  1.000000  1.000000  1.000000
 FoFCou: FMM=F IPFlag=           0 FMFlag=      100000 FMFlg1=           0
         NFxFlg=           0 DoJE=T BraDBF=F KetDBF=T FulRan=T
         wScrn=  0.000000 ICntrl=       500 IOpCl=  0 I1Cent=   200000004 NGrid=           0
         NMat0=    1 NMatS0=      1 NMatT0=    0 NMatD0=    1 NMtDS0=    0 NMtDT0=    0
 Petite list used in FoFCou.
 Initial guess orbital symmetries:
       Occupied  (A') (A') (A') (A') (A') (A") (A') (A') (A') (A')
                 (A") (A') (A")
       Virtual   (A') (A') (A') (A') (A') (A") (A') (A') (A") (A')
                 (A") (A') (A") (A') (A') (A') (A") (A') (A') (A")
                 (A') (A") (A') (A')
 The electronic state of the initial guess is 1-A'.
 Keep R1 ints in memory in symmetry-blocked form, NReq=7153137.
 Requested convergence on RMS density matrix=1.00D-08 within 128 cycles.
 Requested convergence on MAX density matrix=1.00D-06.
 Requested convergence on             energy=1.00D-06.
 No special actions if energy rises.
 Integral accuracy reduced to 1.0D-05 until final iterations.
 Initial convergence to 1.0D-05 achieved.  Increase integral accuracy.
 SCF Done:  E(RB3LYP) =  -535.748840277     A.U. after   13 cycles
            NFock= 13  Conv=0.22D-08     -V/T= 2.0028
 DoSCS=F DFT=T ScalE2(SS,OS)=  1.000000  1.000000
 Range of M.O.s used for correlation:     1    37
 NBasis=    37 NAE=    13 NBE=    13 NFC=     0 NFV=     0
 NROrb=     37 NOA=    13 NOB=    13 NVA=    24 NVB=    24
 Symmetrizing basis deriv contribution to polar:
 IMax=3 JMax=2 DiffMx= 0.00D+00
 G2DrvN: will do     4 centers at a time, making    1 passes.
 Calling FoFCou, ICntrl=  3107 FMM=F I1Cent=   0 AccDes= 0.00D+00.
 End of G2Drv F.D. properties file   721 does not exist.
 End of G2Drv F.D. properties file   722 does not exist.
 End of G2Drv F.D. properties file   788 does not exist.
          IDoAtm=111
          Differentiating once with respect to nuclear coordinates.
 Keep R1 ints in memory in symmetry-blocked form, NReq=7127942.
          There are    12 degrees of freedom in the 1st order CPHF.  IDoFFX=6 NUNeed=     0.
      6 vectors produced by pass  0 Test12= 2.60D-15 8.33D-09 XBig12= 7.79D-02 1.76D-01.
 AX will form     6 AO Fock derivatives at one time.
      6 vectors produced by pass  1 Test12= 2.60D-15 8.33D-09 XBig12= 4.66D-02 1.02D-01.
      6 vectors produced by pass  2 Test12= 2.60D-15 8.33D-09 XBig12= 1.15D-03 1.11D-02.
      6 vectors produced by pass  3 Test12= 2.60D-15 8.33D-09 XBig12= 3.01D-05 1.73D-03.
      6 vectors produced by pass  4 Test12= 2.60D-15 8.33D-09 XBig12= 1.98D-07 1.25D-04.
      6 vectors produced by pass  5 Test12= 2.60D-15 8.33D-09 XBig12= 7.18D-10 8.66D-06.
      3 vectors produced by pass  6 Test12= 2.60D-15 8.33D-09 XBig12= 7.73D-13 3.07D-07.
 InvSVY:  IOpt=1 It=  1 EMax= 1.11D-16
 Solved reduced A of dimension    39 with     6 vectors.
 End of Minotr F.D. properties file   721 does not exist.
 End of Minotr F.D. properties file   722 does not exist.
 End of Minotr F.D. properties file   788 does not exist.

 **********************************************************************

            Population analysis using the SCF density.

 **********************************************************************

 Orbital symmetries:
       Occupied  (A') (A') (A') (A') (A') (A") (A') (A') (A') (A')
                 (A") (A') (A")
       Virtual   (A') (A') (A') (A') (A') (A") (A') (A') (A") (A')
                 (A") (A') (A") (A') (A') (A') (A") (A') (A') (A")
                 (A') (A') (A") (A')
 The electronic state is 1-A'.
 Alpha  occ. eigenvalues -- -101.54679 -19.20680  -9.49654  -7.26998  -7.25388
 Alpha  occ. eigenvalues --   -7.25359  -1.02198  -0.80262  -0.50395  -0.42256
 Alpha  occ. eigenvalues --   -0.37906  -0.32555  -0.29750
 Alpha virt. eigenvalues --   -0.13102   0.06627   0.46513   0.58528   0.68366
 Alpha virt. eigenvalues --    0.69607   0.69956   0.76096   0.76203   0.83504
 Alpha virt. eigenvalues --    0.83907   0.93687   0.99248   1.00081   1.06263
 Alpha virt. eigenvalues --    1.34978   1.41205   1.52127   2.24374   2.59499
 Alpha virt. eigenvalues --    2.75350   2.95052   2.96886   3.68929
          Condensed to atoms (all electrons):
               1          2          3
     1  O    7.794322   0.148932   0.305294
     2  Cl   0.148932  16.809829  -0.013819
     3  H    0.305294  -0.013819   0.515034
 Mulliken charges:
               1
     1  O   -0.248548
     2  Cl   0.055057
     3  H    0.193491
 Sum of Mulliken charges =   0.00000
 Mulliken charges with hydrogens summed into heavy atoms:
               1
     1  O   -0.055057
     2  Cl   0.055057
 APT charges:
               1
     1  O   -0.470263
     2  Cl   0.074830
     3  H    0.395433
 Sum of APT charges =   0.00000
 APT charges with hydrogens summed into heavy atoms:
               1
     1  O   -0.074830
     2  Cl   0.074830
 Electronic spatial extent (au):  <R**2>=            118.4946
 Charge=              0.0000 electrons
 Dipole moment (field-independent basis, Debye):
    X=             -1.6297    Y=             -0.0269    Z=             -0.0000  Tot=              1.6299
 Quadrupole moment (field-independent basis, Debye-Ang):
   XX=            -16.6969   YY=            -16.1028   ZZ=            -18.6736
   XY=             -2.5324   XZ=              0.0000   YZ=             -0.0000
 Traceless Quadrupole moment (field-independent basis, Debye-Ang):
   XX=              0.4609   YY=              1.0549   ZZ=             -1.5159
   XY=             -2.5324   XZ=              0.0000   YZ=             -0.0000
 Octapole moment (field-independent basis, Debye-Ang**2):
  XXX=             -2.0469  YYY=              0.9305  ZZZ=              0.0000  XYY=             -3.6747
  XXY=              3.2208  XXZ=              0.0000  XZZ=             -0.2608  YZZ=              0.5952
  YYZ=              0.0000  XYZ=              0.0000
 Hexadecapole moment (field-independent basis, Debye-Ang**3):
 XXXX=            -16.8953 YYYY=            -90.1441 ZZZZ=            -16.6994 XXXY=             -0.3342
 XXXZ=              0.0000 YYYX=             -3.5177 YYYZ=             -0.0000 ZZZX=              0.0000
 ZZZY=             -0.0000 XXYY=            -17.1092 XXZZ=             -5.8554 YYZZ=            -20.3728
 XXYZ=             -0.0000 YYXZ=              0.0000 ZZXY=              0.4856
 N-N= 4.638106602794D+01 E-N=-1.365598921853D+03  KE= 5.342301541361D+02
 Symmetry A'   KE= 4.834860434369D+02
 Symmetry A"   KE= 5.074411069920D+01
  Exact polarizability:   0.000   0.000   0.000   0.000   0.000   0.000
 Approx polarizability:  13.879  -1.035  51.961   0.000   0.000   9.941
 Calling FoFJK, ICntrl=    100147 FMM=F ISym2X=1 I1Cent= 0 IOpClX= 0 NMat=1 NMatS=1 NMatT=0.
 ***** Axes restored to original set *****
 -------------------------------------------------------------------
 Center     Atomic                   Forces (Hartrees/Bohr)
 Number     Number              X              Y              Z
 -------------------------------------------------------------------
      1        8           0.046989646    0.050189575    0.016701011
      2       17          -0.003438620   -0.048537960   -0.004016280
      3        1          -0.043551026   -0.001651615   -0.012684730
 -------------------------------------------------------------------
 Cartesian Forces:  Max     0.050189575 RMS     0.032403968
 FormGI is forming the generalized inverse of G from B-inverse, IUseBI=4.

 GradGradGradGradGradGradGradGradGradGradGradGradGradGradGradGradGradGrad
 Berny optimization.
 Internal  Forces:  Max     0.048823807 RMS     0.038493451
 Search for a saddle point.
 Step number   1 out of a maximum of  100
 All quantities printed in internal units (Hartrees-Bohrs-Radians)
 Swapping is turned off.
 Second derivative matrix not updated -- analytic derivatives used.
 The second derivative matrix:
                          R1        R2        A1
           R1           0.08649
           R2          -0.00963   0.66630
           A1           0.03454  -0.00261   0.16029
 ITU=  0
     Eigenvalues ---    0.07274   0.17386   0.66648
 Eigenvectors required to have negative eigenvalues:
                          R1        A1        R2
   1                    0.93028  -0.36659   0.01348
 RFO step:  Lambda0=9.371224825D-02 Lambda=-5.10246031D-03.
 Linear search not attempted -- option 19 set.
 Iteration  1 RMS(Cart)=  0.08984061 RMS(Int)=  0.00656675
 Iteration  2 RMS(Cart)=  0.00724011 RMS(Int)=  0.00002572
 Iteration  3 RMS(Cart)=  0.00002414 RMS(Int)=  0.00000000
 Iteration  4 RMS(Cart)=  0.00000000 RMS(Int)=  0.00000000
 ClnCor:  largest displacement from symmetrization is 3.33D-15 for atom     3.
 Variable       Old X    -DE/DX   Delta X   Delta X   Delta X     New X
                                 (Linear)    (Quad)   (Total)
    R1        3.59624  -0.04882   0.00000   0.07658   0.07658   3.67283
    R2        1.76507   0.04538   0.00000   0.06923   0.06923   1.83430
    A1        1.70666  -0.00130   0.00000  -0.14246  -0.14246   1.56419
         Item               Value     Threshold  Converged?
 Maximum Force            0.048824     0.000450     NO 
 RMS     Force            0.038493     0.000300     NO 
 Maximum Displacement     0.103624     0.001800     NO 
 RMS     Displacement     0.093438     0.001200     NO 
 Predicted change in Energy= 3.487388D-03
 GradGradGradGradGradGradGradGradGradGradGradGradGradGradGradGradGradGrad

                          Input orientation:                          
 ---------------------------------------------------------------------
 Center     Atomic      Atomic             Coordinates (Angstroms)
 Number     Number       Type             X           Y           Z
 ---------------------------------------------------------------------
      1          8           0        0.208445    0.760752    4.904913
      2         17           0        0.270867    2.698367    5.043618
      3          1           0       -0.723479    0.816229    4.639135
 ---------------------------------------------------------------------
                    Distance matrix (angstroms):
                    1          2          3
     1  O    0.000000
     2  Cl   1.943576   0.000000
     3  H    0.970669   2.166742   0.000000
 Stoichiometry    ClHO
 Framework group  CS[SG(ClHO)]
 Deg. of freedom     3
 Full point group                 CS      NOp   2
 Largest Abelian subgroup         CS      NOp   2
 Largest concise Abelian subgroup C1      NOp   1
                         Standard orientation:                         
 ---------------------------------------------------------------------
 Center     Atomic      Atomic             Coordinates (Angstroms)
 Number     Number       Type             X           Y           Z
 ---------------------------------------------------------------------
      1          8           0        0.037333    1.271046   -0.000000
      2         17           0        0.037333   -0.672530    0.000000
      3          1           0       -0.933315    1.264637   -0.000000
 ---------------------------------------------------------------------
 Rotational constants (GHZ):         566.0587864          11.6886463          11.4521685
 Standard basis: SVP (5D, 7F)
 There are    29 symmetry adapted cartesian basis functions of A'  symmetry.
 There are    10 symmetry adapted cartesian basis functions of A"  symmetry.
 There are    27 symmetry adapted basis functions of A'  symmetry.
 There are    10 symmetry adapted basis functions of A"  symmetry.
    37 basis functions,    69 primitive gaussians,    39 cartesian basis functions
    13 alpha electrons       13 beta electrons
       nuclear repulsion energy        45.5419040993 Hartrees.
 NAtoms=    3 NActive=    3 NUniq=    3 SFac= 1.00D+00 NAtFMM=   60 NAOKFM=F Big=F
 Integral buffers will be    131072 words long.
 Raffenetti 2 integral format.
 Two-electron integral symmetry is turned on.
 Nuclear repulsion after empirical dispersion term =       45.5402939536 Hartrees.
 One-electron integrals computed using PRISM.
 NBasis=    37 RedAO= T EigKep=  4.46D-02  NBF=    27    10
 NBsUse=    37 1.00D-06 EigRej= -1.00D+00 NBFU=    27    10
 Initial guess from the checkpoint file:  "/tmp/Gau-16538.chk"
 B after Tr=    -0.000000    0.000000    0.000000
         Rot=    0.999994    0.000000   -0.000000   -0.003413 Ang=  -0.39 deg.
 Initial guess orbital symmetries:
       Occupied  (A') (A') (A') (A') (A') (A") (A') (A') (A') (A')
                 (A") (A') (A")
       Virtual   (A') (A') (A') (A') (A') (A") (A') (A') (A") (A')
                 (A") (A') (A") (A') (A') (A') (A") (A') (A') (A")
                 (A') (A') (A") (A')
 ExpMin= 1.22D-01 ExpMax= 1.04D+04 ExpMxC= 1.57D+03 IAcc=2 IRadAn=         4 AccDes= 0.00D+00
 Harris functional with IExCor=  402 and IRadAn=       4 diagonalized for initial guess.
 HarFok:  IExCor=  402 AccDes= 0.00D+00 IRadAn=         4 IDoV= 1 UseB2=F ITyADJ=14
 ICtDFT=  3500011 ScaDFX=  1.000000  1.000000  1.000000  1.000000
 FoFCou: FMM=F IPFlag=           0 FMFlag=      100000 FMFlg1=           0
         NFxFlg=           0 DoJE=T BraDBF=F KetDBF=T FulRan=T
         wScrn=  0.000000 ICntrl=       500 IOpCl=  0 I1Cent=   200000004 NGrid=           0
         NMat0=    1 NMatS0=      1 NMatT0=    0 NMatD0=    1 NMtDS0=    0 NMtDT0=    0
 Petite list used in FoFCou.
 Keep R1 ints in memory in symmetry-blocked form, NReq=7153137.
 Requested convergence on RMS density matrix=1.00D-08 within 128 cycles.
 Requested convergence on MAX density matrix=1.00D-06.
 Requested convergence on             energy=1.00D-06.
 No special actions if energy rises.
 Integral accuracy reduced to 1.0D-05 until final iterations.
 Initial convergence to 1.0D-05 achieved.  Increase integral accuracy.
 SCF Done:  E(RB3LYP) =  -535.745520727     A.U. after   13 cycles
            NFock= 13  Conv=0.17D-08     -V/T= 2.0030
 Calling FoFJK, ICntrl=      2127 FMM=F ISym2X=1 I1Cent= 0 IOpClX= 0 NMat=1 NMatS=1 NMatT=0.
 ***** Axes restored to original set *****
 -------------------------------------------------------------------
 Center     Atomic                   Forces (Hartrees/Bohr)
 Number     Number              X              Y              Z
 -------------------------------------------------------------------
      1        8           0.001876923    0.058800214    0.004204223
      2       17           0.003326133   -0.048916678   -0.002085532
      3        1          -0.005203056   -0.009883536   -0.002118691
 -------------------------------------------------------------------
 Cartesian Forces:  Max     0.058800214 RMS     0.025854642

 GradGradGradGradGradGradGradGradGradGradGradGradGradGradGradGradGradGrad
 Berny optimization.
 FormGI is forming the generalized inverse of G from B-inverse, IUseBI=4.
 Internal  Forces:  Max     0.048808777 RMS     0.030319299
 Search for a saddle point.
 Step number   2 out of a maximum of  100
 All quantities printed in internal units (Hartrees-Bohrs-Radians)
 Swapping is turned off.
 Update second derivatives using D2CorX and points    1    2
 The second derivative matrix:
                          R1        R2        A1
           R1           0.08435
           R2          -0.02207   0.63497
           A1           0.03473   0.01328   0.16561
 ITU=  0  0
     Eigenvalues ---    0.07040   0.17838   0.63615
 Eigenvectors required to have negative eigenvalues:
                          R1        A1        R2
   1                    0.93649  -0.34783   0.04479
 RFO step:  Lambda0=9.798790291D-02 Lambda=-8.62349836D-05.
 Linear search not attempted -- option 19 set.
 Iteration  1 RMS(Cart)=  0.00732049 RMS(Int)=  0.00000327
 Iteration  2 RMS(Cart)=  0.00000453 RMS(Int)=  0.00000000
 Iteration  3 RMS(Cart)=  0.00000000 RMS(Int)=  0.00000000
 ClnCor:  largest displacement from symmetrization is 9.16D-16 for atom     2.
 Variable       Old X    -DE/DX   Delta X   Delta X   Delta X     New X
                                 (Linear)    (Quad)   (Total)
    R1        3.67283  -0.04881   0.00000   0.01159   0.01159   3.68442
    R2        1.83430   0.00501   0.00000   0.01205   0.01205   1.84635
    A1        1.56419   0.01872   0.00000  -0.00133  -0.00133   1.56286
         Item               Value     Threshold  Converged?
 Maximum Force            0.048809     0.000450     NO 
 RMS     Force            0.030319     0.000300     NO 
 Maximum Displacement     0.007357     0.001800     NO 
 RMS     Displacement     0.007319     0.001200     NO 
 Predicted change in Energy= 5.784987D-04
 GradGradGradGradGradGradGradGradGradGradGradGradGradGradGradGradGradGrad

                          Input orientation:                          
 ---------------------------------------------------------------------
 Center     Atomic      Atomic             Coordinates (Angstroms)
 Number     Number       Type             X           Y           Z
 ---------------------------------------------------------------------
      1          8           0        0.211005    0.758436    4.905508
      2         17           0        0.271852    2.702260    5.044145
      3          1           0       -0.727025    0.814652    4.638013
 ---------------------------------------------------------------------
                    Distance matrix (angstroms):
                    1          2          3
     1  O    0.000000
     2  Cl   1.949711   0.000000
     3  H    0.977044   2.173882   0.000000
 Stoichiometry    ClHO
 Framework group  CS[SG(ClHO)]
 Deg. of freedom     3
 Full point group                 CS      NOp   2
 Largest Abelian subgroup         CS      NOp   2
 Largest concise Abelian subgroup C1      NOp   1
                         Standard orientation:                         
 ---------------------------------------------------------------------
 Center     Atomic      Atomic             Coordinates (Angstroms)
 Number     Number       Type             X           Y           Z
 ---------------------------------------------------------------------
      1          8           0        0.037577    1.275109    0.000000
      2         17           0        0.037577   -0.674602    0.000000
      3          1           0       -0.939436    1.267358    0.000000
 ---------------------------------------------------------------------
 Rotational constants (GHZ):         558.6645873          11.6160761          11.3794676
 Standard basis: SVP (5D, 7F)
 There are    29 symmetry adapted cartesian basis functions of A'  symmetry.
 There are    10 symmetry adapted cartesian basis functions of A"  symmetry.
 There are    27 symmetry adapted basis functions of A'  symmetry.
 There are    10 symmetry adapted basis functions of A"  symmetry.
    37 basis functions,    69 primitive gaussians,    39 cartesian basis functions
    13 alpha electrons       13 beta electrons
       nuclear repulsion energy        45.3832907838 Hartrees.
 NAtoms=    3 NActive=    3 NUniq=    3 SFac= 1.00D+00 NAtFMM=   60 NAOKFM=F Big=F
 Integral buffers will be    131072 words long.
 Raffenetti 2 integral format.
 Two-electron integral symmetry is turned on.
 Nuclear repulsion after empirical dispersion term =       45.3816809241 Hartrees.
 One-electron integrals computed using PRISM.
 NBasis=    37 RedAO= T EigKep=  4.51D-02  NBF=    27    10
 NBsUse=    37 1.00D-06 EigRej= -1.00D+00 NBFU=    27    10
 Initial guess from the checkpoint file:  "/tmp/Gau-16538.chk"
 B after Tr=     0.000000   -0.000000   -0.000000
         Rot=    1.000000   -0.000000    0.000000   -0.000117 Ang=  -0.01 deg.
 Initial guess orbital symmetries:
       Occupied  (A') (A') (A') (A') (A') (A") (A') (A') (A') (A')
                 (A") (A') (A")
       Virtual   (A') (A') (A') (A') (A') (A') (A") (A') (A") (A')
                 (A") (A') (A') (A") (A') (A') (A") (A') (A') (A")
                 (A') (A') (A") (A')
 Keep R1 ints in memory in symmetry-blocked form, NReq=7153137.
 Requested convergence on RMS density matrix=1.00D-08 within 128 cycles.
 Requested convergence on MAX density matrix=1.00D-06.
 Requested convergence on             energy=1.00D-06.
 No special actions if energy rises.
 SCF Done:  E(RB3LYP) =  -535.744949697     A.U. after    8 cycles
            NFock=  8  Conv=0.98D-08     -V/T= 2.0030
 Calling FoFJK, ICntrl=      2127 FMM=F ISym2X=1 I1Cent= 0 IOpClX= 0 NMat=1 NMatS=1 NMatT=0.
 ***** Axes restored to original set *****
 -------------------------------------------------------------------
 Center     Atomic                   Forces (Hartrees/Bohr)
 Number     Number              X              Y              Z
 -------------------------------------------------------------------
      1        8          -0.003842471    0.059626662    0.002603363
      2       17           0.003252633   -0.049630237   -0.002151206
      3        1           0.000589838   -0.009996425   -0.000452157
 -------------------------------------------------------------------
 Cartesian Forces:  Max     0.059626662 RMS     0.026152819

 GradGradGradGradGradGradGradGradGradGradGradGradGradGradGradGradGradGrad
 Berny optimization.
 FormGI is forming the generalized inverse of G from B-inverse, IUseBI=4.
 Internal  Forces:  Max     0.049531974 RMS     0.030514694
 Search for a saddle point.
 Step number   3 out of a maximum of  100
 All quantities printed in internal units (Hartrees-Bohrs-Radians)
 Swapping is turned off.
 Update second derivatives using D2CorX and points    1    2    3
 The second derivative matrix:
                          R1        R2        A1
           R1           0.10117
           R2          -0.03395   0.53466
           A1           0.03060   0.01453   0.16764
 ITU=  0  0  0
     Eigenvalues ---    0.08619   0.17957   0.53770
 Eigenvectors required to have negative eigenvalues:
                          R1        A1        R2
   1                    0.92806  -0.36327   0.08203
 RFO step:  Lambda0=1.112032078D-01 Lambda=-2.51777624D-05.
 Linear search not attempted -- option 19 set.
 Iteration  1 RMS(Cart)=  0.00532409 RMS(Int)=  0.00002117
 Iteration  2 RMS(Cart)=  0.00002639 RMS(Int)=  0.00000000
 Iteration  3 RMS(Cart)=  0.00000000 RMS(Int)=  0.00000000
 ClnCor:  largest displacement from symmetrization is 3.05D-15 for atom     3.
 Variable       Old X    -DE/DX   Delta X   Delta X   Delta X     New X
                                 (Linear)    (Quad)   (Total)
    R1        3.68442  -0.04953   0.00000   0.00511   0.00511   3.68953
    R2        1.84635  -0.00102   0.00000   0.00682   0.00682   1.85317
    A1        1.56286   0.01841   0.00000  -0.00748  -0.00748   1.55538
         Item               Value     Threshold  Converged?
 Maximum Force            0.049532     0.000450     NO 
 RMS     Force            0.030515     0.000300     NO 
 Maximum Displacement     0.005346     0.001800     NO 
 RMS     Displacement     0.005336     0.001200     NO 
 Predicted change in Energy= 4.131138D-04
 GradGradGradGradGradGradGradGradGradGradGradGradGradGradGradGradGradGrad

                          Input orientation:                          
 ---------------------------------------------------------------------
 Center     Atomic      Atomic             Coordinates (Angstroms)
 Number     Number       Type             X           Y           Z
 ---------------------------------------------------------------------
      1          8           0        0.213281    0.755607    4.905989
      2         17           0        0.270542    2.702313    5.043770
      3          1           0       -0.727991    0.817428    4.637907
 ---------------------------------------------------------------------
                    Distance matrix (angstroms):
                    1          2          3
     1  O    0.000000
     2  Cl   1.952415   0.000000
     3  H    0.980654   2.171309   0.000000
 Stoichiometry    ClHO
 Framework group  CS[SG(ClHO)]
 Deg. of freedom     3
 Full point group                 CS      NOp   2
 Largest Abelian subgroup         CS      NOp   2
 Largest concise Abelian subgroup C1      NOp   1
                         Standard orientation:                         
 ---------------------------------------------------------------------
 Center     Atomic      Atomic             Coordinates (Angstroms)
 Number     Number       Type             X           Y           Z
 ---------------------------------------------------------------------
      1          8           0        0.037713    1.277161    0.000000
      2         17           0        0.037713   -0.675255    0.000000
      3          1           0       -0.942824    1.262044   -0.000000
 ---------------------------------------------------------------------
 Rotational constants (GHZ):         554.4074124          11.5891166          11.3518225
 Standard basis: SVP (5D, 7F)
 There are    29 symmetry adapted cartesian basis functions of A'  symmetry.
 There are    10 symmetry adapted cartesian basis functions of A"  symmetry.
 There are    27 symmetry adapted basis functions of A'  symmetry.
 There are    10 symmetry adapted basis functions of A"  symmetry.
    37 basis functions,    69 primitive gaussians,    39 cartesian basis functions
    13 alpha electrons       13 beta electrons
       nuclear repulsion energy        45.3211270995 Hartrees.
 NAtoms=    3 NActive=    3 NUniq=    3 SFac= 1.00D+00 NAtFMM=   60 NAOKFM=F Big=F
 Integral buffers will be    131072 words long.
 Raffenetti 2 integral format.
 Two-electron integral symmetry is turned on.
 Nuclear repulsion after empirical dispersion term =       45.3195169356 Hartrees.
 One-electron integrals computed using PRISM.
 NBasis=    37 RedAO= T EigKep=  4.54D-02  NBF=    27    10
 NBsUse=    37 1.00D-06 EigRej= -1.00D+00 NBFU=    27    10
 Initial guess from the checkpoint file:  "/tmp/Gau-16538.chk"
 B after Tr=    -0.000000    0.000000   -0.000000
         Rot=    1.000000    0.000000   -0.000000   -0.000207 Ang=  -0.02 deg.
 Initial guess orbital symmetries:
       Occupied  (A') (A') (A') (A') (A') (A") (A') (A') (A') (A')
                 (A") (A') (A")
       Virtual   (A') (A') (A') (A') (A') (A') (A") (A') (A") (A')
                 (A") (A') (A') (A") (A') (A') (A") (A') (A') (A")
                 (A') (A') (A") (A')
 Keep R1 ints in memory in symmetry-blocked form, NReq=7153137.
 Requested convergence on RMS density matrix=1.00D-08 within 128 cycles.
 Requested convergence on MAX density matrix=1.00D-06.
 Requested convergence on             energy=1.00D-06.
 No special actions if energy rises.
 SCF Done:  E(RB3LYP) =  -535.744537027     A.U. after    8 cycles
            NFock=  8  Conv=0.91D-08     -V/T= 2.0030
 Calling FoFJK, ICntrl=      2127 FMM=F ISym2X=1 I1Cent= 0 IOpClX= 0 NMat=1 NMatS=1 NMatT=0.
 ***** Axes restored to original set *****
 -------------------------------------------------------------------
 Center     Atomic                   Forces (Hartrees/Bohr)
 Number     Number              X              Y              Z
 -------------------------------------------------------------------
      1        8          -0.007278477    0.060317792    0.001653745
      2       17           0.003589848   -0.049630553   -0.002053804
      3        1           0.003688629   -0.010687238    0.000400060
 -------------------------------------------------------------------
 Cartesian Forces:  Max     0.060317792 RMS     0.026462189

 GradGradGradGradGradGradGradGradGradGradGradGradGradGradGradGradGradGrad
 Berny optimization.
 FormGI is forming the generalized inverse of G from B-inverse, IUseBI=4.
 Internal  Forces:  Max     0.049525199 RMS     0.030804453
 Search for a saddle point.
 Step number   4 out of a maximum of  100
 All quantities printed in internal units (Hartrees-Bohrs-Radians)
 Swapping is turned off.
 Update second derivatives using D2CorX and points    1    2    3    4
 The second derivative matrix:
                          R1        R2        A1
           R1           0.09864
           R2          -0.03350   0.51603
           A1           0.03772   0.00578   0.15952
 ITU=  0  0  0  0
     Eigenvalues ---    0.07816   0.17731   0.51873
 Eigenvectors required to have negative eigenvalues:
                          R1        A1        R2
   1                    0.90267  -0.42380   0.07466
 RFO step:  Lambda0=1.051189437D-01 Lambda=-6.99435153D-05.
 Linear search not attempted -- option 19 set.
 Iteration  1 RMS(Cart)=  0.01899920 RMS(Int)=  0.00025063
 Iteration  2 RMS(Cart)=  0.00019186 RMS(Int)=  0.00000001
 Iteration  3 RMS(Cart)=  0.00000001 RMS(Int)=  0.00000000
 ClnCor:  largest displacement from symmetrization is 1.86D-15 for atom     1.
 Variable       Old X    -DE/DX   Delta X   Delta X   Delta X     New X
                                 (Linear)    (Quad)   (Total)
    R1        3.68953  -0.04953   0.00000   0.00956   0.00956   3.69909
    R2        1.85317  -0.00432   0.00000   0.00047   0.00047   1.85363
    A1        1.55538   0.01937   0.00000  -0.02638  -0.02638   1.52900
         Item               Value     Threshold  Converged?
 Maximum Force            0.049525     0.000450     NO 
 RMS     Force            0.030804     0.000300     NO 
 Maximum Displacement     0.023201     0.001800     NO 
 RMS     Displacement     0.019066     0.001200     NO 
 Predicted change in Energy= 1.036946D-03
 GradGradGradGradGradGradGradGradGradGradGradGradGradGradGradGradGradGrad

                          Input orientation:                          
 ---------------------------------------------------------------------
 Center     Atomic      Atomic             Coordinates (Angstroms)
 Number     Number       Type             X           Y           Z
 ---------------------------------------------------------------------
      1          8           0        0.215895    0.746736    4.906192
      2         17           0        0.264392    2.698906    5.041781
      3          1           0       -0.724455    0.829706    4.639693
 ---------------------------------------------------------------------
                    Distance matrix (angstroms):
                    1          2          3
     1  O    0.000000
     2  Cl   1.957474   0.000000
     3  H    0.980900   2.152534   0.000000
 Stoichiometry    ClHO
 Framework group  CS[SG(ClHO)]
 Deg. of freedom     3
 Full point group                 CS      NOp   2
 Largest Abelian subgroup         CS      NOp   2
 Largest concise Abelian subgroup C1      NOp   1
                         Standard orientation:                         
 ---------------------------------------------------------------------
 Center     Atomic      Atomic             Coordinates (Angstroms)
 Number     Number       Type             X           Y           Z
 ---------------------------------------------------------------------
      1          8           0        0.037694    1.281463   -0.000000
      2         17           0        0.037694   -0.676011    0.000000
      3          1           0       -0.942349    1.240475    0.000000
 ---------------------------------------------------------------------
 Rotational constants (GHZ):         554.0952235          11.5474201          11.3116831
 Standard basis: SVP (5D, 7F)
 There are    29 symmetry adapted cartesian basis functions of A'  symmetry.
 There are    10 symmetry adapted cartesian basis functions of A"  symmetry.
 There are    27 symmetry adapted basis functions of A'  symmetry.
 There are    10 symmetry adapted basis functions of A"  symmetry.
    37 basis functions,    69 primitive gaussians,    39 cartesian basis functions
    13 alpha electrons       13 beta electrons
       nuclear repulsion energy        45.2609144617 Hartrees.
 NAtoms=    3 NActive=    3 NUniq=    3 SFac= 1.00D+00 NAtFMM=   60 NAOKFM=F Big=F
 Integral buffers will be    131072 words long.
 Raffenetti 2 integral format.
 Two-electron integral symmetry is turned on.
 Nuclear repulsion after empirical dispersion term =       45.2593029058 Hartrees.
 One-electron integrals computed using PRISM.
 NBasis=    37 RedAO= T EigKep=  4.55D-02  NBF=    27    10
 NBsUse=    37 1.00D-06 EigRej= -1.00D+00 NBFU=    27    10
 Initial guess from the checkpoint file:  "/tmp/Gau-16538.chk"
 B after Tr=     0.000000   -0.000000    0.000000
         Rot=    1.000000    0.000000   -0.000000   -0.000440 Ang=  -0.05 deg.
 Initial guess orbital symmetries:
       Occupied  (A') (A') (A') (A') (A') (A") (A') (A') (A') (A')
                 (A") (A') (A")
       Virtual   (A') (A') (A') (A') (A') (A') (A") (A') (A") (A')
                 (A") (A') (A') (A") (A') (A') (A") (A') (A') (A")
                 (A') (A') (A") (A')
 ExpMin= 1.22D-01 ExpMax= 1.04D+04 ExpMxC= 1.57D+03 IAcc=2 IRadAn=         4 AccDes= 0.00D+00
 Harris functional with IExCor=  402 and IRadAn=       4 diagonalized for initial guess.
 HarFok:  IExCor=  402 AccDes= 0.00D+00 IRadAn=         4 IDoV= 1 UseB2=F ITyADJ=14
 ICtDFT=  3500011 ScaDFX=  1.000000  1.000000  1.000000  1.000000
 FoFCou: FMM=F IPFlag=           0 FMFlag=      100000 FMFlg1=           0
         NFxFlg=           0 DoJE=T BraDBF=F KetDBF=T FulRan=T
         wScrn=  0.000000 ICntrl=       500 IOpCl=  0 I1Cent=   200000004 NGrid=           0
         NMat0=    1 NMatS0=      1 NMatT0=    0 NMatD0=    1 NMtDS0=    0 NMtDT0=    0
 Petite list used in FoFCou.
 Keep R1 ints in memory in symmetry-blocked form, NReq=7153137.
 Requested convergence on RMS density matrix=1.00D-08 within 128 cycles.
 Requested convergence on MAX density matrix=1.00D-06.
 Requested convergence on             energy=1.00D-06.
 No special actions if energy rises.
 Integral accuracy reduced to 1.0D-05 until final iterations.
 Initial convergence to 1.0D-05 achieved.  Increase integral accuracy.
 SCF Done:  E(RB3LYP) =  -535.743503145     A.U. after   12 cycles
            NFock= 12  Conv=0.17D-08     -V/T= 2.0030
 Calling FoFJK, ICntrl=      2127 FMM=F ISym2X=1 I1Cent= 0 IOpClX= 0 NMat=1 NMatS=1 NMatT=0.
 ***** Axes restored to original set *****
 -------------------------------------------------------------------
 Center     Atomic                   Forces (Hartrees/Bohr)
 Number     Number              X              Y              Z
 -------------------------------------------------------------------
      1        8          -0.008253316    0.061937088    0.001472961
      2       17           0.004792917   -0.049146844   -0.001676114
      3        1           0.003460400   -0.012790244    0.000203152
 -------------------------------------------------------------------
 Cartesian Forces:  Max     0.061937088 RMS     0.026922294

 GradGradGradGradGradGradGradGradGradGradGradGradGradGradGradGradGradGrad
 Berny optimization.
 FormGI is forming the generalized inverse of G from B-inverse, IUseBI=4.
 Internal  Forces:  Max     0.049011045 RMS     0.031395967
 Search for a saddle point.
 Step number   5 out of a maximum of  100
 All quantities printed in internal units (Hartrees-Bohrs-Radians)
 Swapping is turned off.
 Update second derivatives using D2CorX and points    2    3    4    5
 The second derivative matrix:
                          R1        R2        A1
           R1           0.08401
           R2          -0.02867   0.52392
           A1           0.04942  -0.00612   0.16037
 ITU=  0  0  0  0
     Eigenvalues ---    0.05859   0.18369   0.52602
 Eigenvectors required to have negative eigenvalues:
                          R1        A1        R2
   1                    0.89961  -0.43385   0.04972
 RFO step:  Lambda0=9.103673097D-02 Lambda=-7.28627237D-06.
 Linear search not attempted -- option 19 set.
 Iteration  1 RMS(Cart)=  0.00371811 RMS(Int)=  0.00000998
 Iteration  2 RMS(Cart)=  0.00000748 RMS(Int)=  0.00000000
 Iteration  3 RMS(Cart)=  0.00000000 RMS(Int)=  0.00000000
 ClnCor:  largest displacement from symmetrization is 3.58D-15 for atom     1.
 Variable       Old X    -DE/DX   Delta X   Delta X   Delta X     New X
                                 (Linear)    (Quad)   (Total)
    R1        3.69909  -0.04901   0.00000   0.00292   0.00292   3.70201
    R2        1.85363  -0.00445   0.00000  -0.00321  -0.00321   1.85042
    A1        1.52900   0.02313   0.00000  -0.00450  -0.00450   1.52450
         Item               Value     Threshold  Converged?
 Maximum Force            0.049011     0.000450     NO 
 RMS     Force            0.031396     0.000300     NO 
 Maximum Displacement     0.003903     0.001800     NO 
 RMS     Displacement     0.003717     0.001200     NO 
 Predicted change in Energy= 2.372723D-04
 GradGradGradGradGradGradGradGradGradGradGradGradGradGradGradGradGradGrad

                          Input orientation:                          
 ---------------------------------------------------------------------
 Center     Atomic      Atomic             Coordinates (Angstroms)
 Number     Number       Type             X           Y           Z
 ---------------------------------------------------------------------
      1          8           0        0.215477    0.744917    4.905958
      2         17           0        0.263328    2.698660    5.041458
      3          1           0       -0.722973    0.831771    4.640250
 ---------------------------------------------------------------------
                    Distance matrix (angstroms):
                    1          2          3
     1  O    0.000000
     2  Cl   1.959021   0.000000
     3  H    0.979200   2.149194   0.000000
 Stoichiometry    ClHO
 Framework group  CS[SG(ClHO)]
 Deg. of freedom     3
 Full point group                 CS      NOp   2
 Largest Abelian subgroup         CS      NOp   2
 Largest concise Abelian subgroup C1      NOp   1
                         Standard orientation:                         
 ---------------------------------------------------------------------
 Center     Atomic      Atomic             Coordinates (Angstroms)
 Number     Number       Type             X           Y           Z
 ---------------------------------------------------------------------
      1          8           0        0.037621    1.282641   -0.000000
      2         17           0        0.037621   -0.676380    0.000000
      3          1           0       -0.940530    1.237322    0.000000
 ---------------------------------------------------------------------
 Rotational constants (GHZ):         556.0952210          11.5322170          11.2979224
 Standard basis: SVP (5D, 7F)
 There are    29 symmetry adapted cartesian basis functions of A'  symmetry.
 There are    10 symmetry adapted cartesian basis functions of A"  symmetry.
 There are    27 symmetry adapted basis functions of A'  symmetry.
 There are    10 symmetry adapted basis functions of A"  symmetry.
    37 basis functions,    69 primitive gaussians,    39 cartesian basis functions
    13 alpha electrons       13 beta electrons
       nuclear repulsion energy        45.2458737164 Hartrees.
 NAtoms=    3 NActive=    3 NUniq=    3 SFac= 1.00D+00 NAtFMM=   60 NAOKFM=F Big=F
 Integral buffers will be    131072 words long.
 Raffenetti 2 integral format.
 Two-electron integral symmetry is turned on.
 Nuclear repulsion after empirical dispersion term =       45.2442619350 Hartrees.
 One-electron integrals computed using PRISM.
 NBasis=    37 RedAO= T EigKep=  4.55D-02  NBF=    27    10
 NBsUse=    37 1.00D-06 EigRej= -1.00D+00 NBFU=    27    10
 Initial guess from the checkpoint file:  "/tmp/Gau-16538.chk"
 B after Tr=    -0.000000    0.000000    0.000000
         Rot=    1.000000   -0.000000    0.000000   -0.000016 Ang=  -0.00 deg.
 Initial guess orbital symmetries:
       Occupied  (A') (A') (A') (A') (A') (A") (A') (A') (A') (A')
                 (A") (A') (A")
       Virtual   (A') (A') (A') (A') (A') (A') (A") (A') (A") (A')
                 (A") (A') (A') (A") (A') (A") (A') (A') (A') (A")
                 (A') (A') (A") (A')
 Keep R1 ints in memory in symmetry-blocked form, NReq=7153137.
 Requested convergence on RMS density matrix=1.00D-08 within 128 cycles.
 Requested convergence on MAX density matrix=1.00D-06.
 Requested convergence on             energy=1.00D-06.
 No special actions if energy rises.
 SCF Done:  E(RB3LYP) =  -535.743266192     A.U. after    8 cycles
            NFock=  8  Conv=0.70D-08     -V/T= 2.0030
 Calling FoFJK, ICntrl=      2127 FMM=F ISym2X=1 I1Cent= 0 IOpClX= 0 NMat=1 NMatS=1 NMatT=0.
 ***** Axes restored to original set *****
 -------------------------------------------------------------------
 Center     Atomic                   Forces (Hartrees/Bohr)
 Number     Number              X              Y              Z
 -------------------------------------------------------------------
      1        8          -0.006818964    0.062173438    0.001902064
      2       17           0.004956355   -0.049175259   -0.001630666
      3        1           0.001862609   -0.012998179   -0.000271398
 -------------------------------------------------------------------
 Cartesian Forces:  Max     0.062173438 RMS     0.026943519

 GradGradGradGradGradGradGradGradGradGradGradGradGradGradGradGradGradGrad
 Berny optimization.
 FormGI is forming the generalized inverse of G from B-inverse, IUseBI=4.
 Internal  Forces:  Max     0.049034484 RMS     0.031491429
 Search for a saddle point.
 Step number   6 out of a maximum of  100
 All quantities printed in internal units (Hartrees-Bohrs-Radians)
 Swapping is turned off.
 Second derivative matrix not updated -- analytic derivatives used.
 The second derivative matrix:
                          R1        R2        A1
           R1           0.08401
           R2          -0.02867   0.52392
           A1           0.04942  -0.00612   0.16037
 ITU=  0  0  0  0
     Eigenvalues ---    0.05859   0.18369   0.52602
 Eigenvectors required to have negative eigenvalues:
                          R1        A1        R2
   1                    0.89961  -0.43385   0.04972
 RFO step:  Lambda0=9.120869570D-02 Lambda=-6.26616639D-08.
 Linear search not attempted -- option 19 set.
 Iteration  1 RMS(Cart)=  0.00029091 RMS(Int)=  0.00000001
 Iteration  2 RMS(Cart)=  0.00000001 RMS(Int)=  0.00000000
 ClnCor:  largest displacement from symmetrization is 2.96D-15 for atom     3.
 Variable       Old X    -DE/DX   Delta X   Delta X   Delta X     New X
                                 (Linear)    (Quad)   (Total)
    R1        3.70201  -0.04903   0.00000   0.00053   0.00053   3.70254
    R2        1.85042  -0.00286   0.00000  -0.00026  -0.00026   1.85016
    A1        1.52450   0.02372   0.00000   0.00010   0.00010   1.52459
         Item               Value     Threshold  Converged?
 Maximum Force            0.049034     0.000450     NO 
 RMS     Force            0.031491     0.000300     NO 
 Maximum Displacement     0.000364     0.001800     YES
 RMS     Displacement     0.000291     0.001200     YES
 Predicted change in Energy= 2.298987D-05
 GradGradGradGradGradGradGradGradGradGradGradGradGradGradGradGradGradGrad

                          Input orientation:                          
 ---------------------------------------------------------------------
 Center     Atomic      Atomic             Coordinates (Angstroms)
 Number     Number       Type             X           Y           Z
 ---------------------------------------------------------------------
      1          8           0        0.215384    0.744836    4.905926
      2         17           0        0.263385    2.698852    5.041487
      3          1           0       -0.722937    0.831659    4.640253
 ---------------------------------------------------------------------
                    Distance matrix (angstroms):
                    1          2          3
     1  O    0.000000
     2  Cl   1.959301   0.000000
     3  H    0.979064   2.149472   0.000000
 Stoichiometry    ClHO
 Framework group  CS[SG(ClHO)]
 Deg. of freedom     3
 Full point group                 CS      NOp   2
 Largest Abelian subgroup         CS      NOp   2
 Largest concise Abelian subgroup C1      NOp   1
                         Standard orientation:                         
 ---------------------------------------------------------------------
 Center     Atomic      Atomic             Coordinates (Angstroms)
 Number     Number       Type             X           Y           Z
 ---------------------------------------------------------------------
      1          8           0        0.037616    1.282821    0.000000
      2         17           0        0.037616   -0.676480   -0.000000
      3          1           0       -0.940403    1.237601   -0.000000
 ---------------------------------------------------------------------
 Rotational constants (GHZ):         556.2488167          11.5288515          11.2947556
 Standard basis: SVP (5D, 7F)
 There are    29 symmetry adapted cartesian basis functions of A'  symmetry.
 There are    10 symmetry adapted cartesian basis functions of A"  symmetry.
 There are    27 symmetry adapted basis functions of A'  symmetry.
 There are    10 symmetry adapted basis functions of A"  symmetry.
    37 basis functions,    69 primitive gaussians,    39 cartesian basis functions
    13 alpha electrons       13 beta electrons
       nuclear repulsion energy        45.2406824496 Hartrees.
 NAtoms=    3 NActive=    3 NUniq=    3 SFac= 1.00D+00 NAtFMM=   60 NAOKFM=F Big=F
 Integral buffers will be    131072 words long.
 Raffenetti 2 integral format.
 Two-electron integral symmetry is turned on.
 Nuclear repulsion after empirical dispersion term =       45.2390706806 Hartrees.
 One-electron integrals computed using PRISM.
 NBasis=    37 RedAO= T EigKep=  4.55D-02  NBF=    27    10
 NBsUse=    37 1.00D-06 EigRej= -1.00D+00 NBFU=    27    10
 Initial guess from the checkpoint file:  "/tmp/Gau-16538.chk"
 B after Tr=     0.000000   -0.000000   -0.000000
         Rot=    1.000000   -0.000000    0.000000    0.000009 Ang=   0.00 deg.
 Initial guess orbital symmetries:
       Occupied  (A') (A') (A') (A') (A') (A") (A') (A') (A') (A')
                 (A") (A') (A")
       Virtual   (A') (A') (A') (A') (A') (A') (A") (A') (A") (A')
                 (A") (A') (A') (A") (A') (A") (A') (A') (A') (A")
                 (A') (A') (A") (A')
 Keep R1 ints in memory in symmetry-blocked form, NReq=7153137.
 Requested convergence on RMS density matrix=1.00D-08 within 128 cycles.
 Requested convergence on MAX density matrix=1.00D-06.
 Requested convergence on             energy=1.00D-06.
 No special actions if energy rises.
 SCF Done:  E(RB3LYP) =  -535.743243208     A.U. after    6 cycles
            NFock=  6  Conv=0.52D-08     -V/T= 2.0030
 Calling FoFJK, ICntrl=      2127 FMM=F ISym2X=1 I1Cent= 0 IOpClX= 0 NMat=1 NMatS=1 NMatT=0.
 ***** Axes restored to original set *****
 -------------------------------------------------------------------
 Center     Atomic                   Forces (Hartrees/Bohr)
 Number     Number              X              Y              Z
 -------------------------------------------------------------------
      1        8          -0.006679931    0.062186689    0.001943056
      2       17           0.004940416   -0.049219770   -0.001638043
      3        1           0.001739514   -0.012966919   -0.000305014
 -------------------------------------------------------------------
 Cartesian Forces:  Max     0.062186689 RMS     0.026949578

 GradGradGradGradGradGradGradGradGradGradGradGradGradGradGradGradGradGrad
 Berny optimization.
 FormGI is forming the generalized inverse of G from B-inverse, IUseBI=4.
 Internal  Forces:  Max     0.049079289 RMS     0.031500817
 Search for a saddle point.
 Step number   7 out of a maximum of  100
 All quantities printed in internal units (Hartrees-Bohrs-Radians)
 Swapping is turned off.
 Update second derivatives using D2CorX and points    4    5    7
 The second derivative matrix:
                          R1        R2        A1
           R1           0.07231
           R2          -0.01114   0.49991
           A1           0.04995  -0.01206   0.17211
 ITU=  0  0  0  0
     Eigenvalues ---    0.05153   0.19205   0.50075
 Eigenvectors required to have negative eigenvalues:
                          R1        A1        R2
   1                    0.92423  -0.38162   0.01269
 RFO step:  Lambda0=8.598466600D-02 Lambda=-5.80384206D-05.
 Linear search not attempted -- option 19 set.
 Iteration  1 RMS(Cart)=  0.01404085 RMS(Int)=  0.00001849
 Iteration  2 RMS(Cart)=  0.00001298 RMS(Int)=  0.00000000
 Iteration  3 RMS(Cart)=  0.00000000 RMS(Int)=  0.00000000
 ClnCor:  largest displacement from symmetrization is 3.05D-15 for atom     3.
 Variable       Old X    -DE/DX   Delta X   Delta X   Delta X     New X
                                 (Linear)    (Quad)   (Total)
    R1        3.70254  -0.04908   0.00000   0.02139   0.02139   3.72394
    R2        1.85016  -0.00273   0.00000  -0.00338  -0.00338   1.84678
    A1        1.52459   0.02368   0.00000   0.00855   0.00855   1.53315
         Item               Value     Threshold  Converged?
 Maximum Force            0.049079     0.000450     NO 
 RMS     Force            0.031501     0.000300     NO 
 Maximum Displacement     0.017254     0.001800     NO 
 RMS     Displacement     0.014044     0.001200     NO 
 Predicted change in Energy= 8.742549D-04
 GradGradGradGradGradGradGradGradGradGradGradGradGradGradGradGradGradGrad

                          Input orientation:                          
 ---------------------------------------------------------------------
 Center     Atomic      Atomic             Coordinates (Angstroms)
 Number     Number       Type             X           Y           Z
 ---------------------------------------------------------------------
      1          8           0        0.212820    0.742954    4.905069
      2         17           0        0.267143    2.707983    5.043141
      3          1           0       -0.724132    0.824411    4.639457
 ---------------------------------------------------------------------
                    Distance matrix (angstroms):
                    1          2          3
     1  O    0.000000
     2  Cl   1.970622   0.000000
     3  H    0.977274   2.166433   0.000000
 Stoichiometry    ClHO
 Framework group  CS[SG(ClHO)]
 Deg. of freedom     3
 Full point group                 CS      NOp   2
 Largest Abelian subgroup         CS      NOp   2
 Largest concise Abelian subgroup C1      NOp   1
                         Standard orientation:                         
 ---------------------------------------------------------------------
 Center     Atomic      Atomic             Coordinates (Angstroms)
 Number     Number       Type             X           Y           Z
 ---------------------------------------------------------------------
      1          8           0        0.037561    1.289899    0.000000
      2         17           0        0.037561   -0.680724   -0.000000
      3          1           0       -0.939020    1.253112    0.000000
 ---------------------------------------------------------------------
 Rotational constants (GHZ):         558.1704666          11.3909967          11.1631814
 Standard basis: SVP (5D, 7F)
 There are    29 symmetry adapted cartesian basis functions of A'  symmetry.
 There are    10 symmetry adapted cartesian basis functions of A"  symmetry.
 There are    27 symmetry adapted basis functions of A'  symmetry.
 There are    10 symmetry adapted basis functions of A"  symmetry.
    37 basis functions,    69 primitive gaussians,    39 cartesian basis functions
    13 alpha electrons       13 beta electrons
       nuclear repulsion energy        45.0048121728 Hartrees.
 NAtoms=    3 NActive=    3 NUniq=    3 SFac= 1.00D+00 NAtFMM=   60 NAOKFM=F Big=F
 Integral buffers will be    131072 words long.
 Raffenetti 2 integral format.
 Two-electron integral symmetry is turned on.
 Nuclear repulsion after empirical dispersion term =       45.0032011693 Hartrees.
 One-electron integrals computed using PRISM.
 NBasis=    37 RedAO= T EigKep=  4.58D-02  NBF=    27    10
 NBsUse=    37 1.00D-06 EigRej= -1.00D+00 NBFU=    27    10
 Initial guess from the checkpoint file:  "/tmp/Gau-16538.chk"
 B after Tr=     0.000000    0.000000    0.000000
         Rot=    1.000000   -0.000000   -0.000000    0.000360 Ang=   0.04 deg.
 Initial guess orbital symmetries:
       Occupied  (A') (A') (A') (A') (A') (A") (A') (A') (A') (A')
                 (A") (A') (A")
       Virtual   (A') (A') (A') (A') (A') (A') (A") (A') (A") (A')
                 (A") (A') (A') (A") (A') (A") (A') (A') (A') (A")
                 (A') (A') (A") (A')
 Keep R1 ints in memory in symmetry-blocked form, NReq=7153137.
 Requested convergence on RMS density matrix=1.00D-08 within 128 cycles.
 Requested convergence on MAX density matrix=1.00D-06.
 Requested convergence on             energy=1.00D-06.
 No special actions if energy rises.
 SCF Done:  E(RB3LYP) =  -535.742371180     A.U. after    9 cycles
            NFock=  9  Conv=0.33D-08     -V/T= 2.0030
 Calling FoFJK, ICntrl=      2127 FMM=F ISym2X=1 I1Cent= 0 IOpClX= 0 NMat=1 NMatS=1 NMatT=0.
 ***** Axes restored to original set *****
 -------------------------------------------------------------------
 Center     Atomic                   Forces (Hartrees/Bohr)
 Number     Number              X              Y              Z
 -------------------------------------------------------------------
      1        8          -0.004247943    0.062681144    0.002676450
      2       17           0.004099503   -0.051107337   -0.001998537
      3        1           0.000148439   -0.011573807   -0.000677914
 -------------------------------------------------------------------
 Cartesian Forces:  Max     0.062681144 RMS     0.027327904

 GradGradGradGradGradGradGradGradGradGradGradGradGradGradGradGradGradGrad
 Berny optimization.
 FormGI is forming the generalized inverse of G from B-inverse, IUseBI=4.
 Internal  Forces:  Max     0.050989291 RMS     0.031918418
 Search for a saddle point.
 Step number   8 out of a maximum of  100
 All quantities printed in internal units (Hartrees-Bohrs-Radians)
 Swapping is turned off.
 Update second derivatives using D2CorX and points    5    6    7    8
 The second derivative matrix:
                          R1        R2        A1
           R1           0.07187
           R2          -0.00422   0.49399
           A1           0.04188  -0.00588   0.16575
 ITU=  0  0  0  0
     Eigenvalues ---    0.05590   0.18156   0.49415
 Eigenvectors required to have negative eigenvalues:
                          R1        A1        R2
   1                    0.93448  -0.35600   0.00422
 RFO step:  Lambda0=8.986563934D-02 Lambda=-1.84864389D-05.
 Linear search not attempted -- option 19 set.
 Iteration  1 RMS(Cart)=  0.00874573 RMS(Int)=  0.00000852
 Iteration  2 RMS(Cart)=  0.00000598 RMS(Int)=  0.00000000
 Iteration  3 RMS(Cart)=  0.00000000 RMS(Int)=  0.00000000
 ClnCor:  largest displacement from symmetrization is 2.02D-15 for atom     1.
 Variable       Old X    -DE/DX   Delta X   Delta X   Delta X     New X
                                 (Linear)    (Quad)   (Total)
    R1        3.72394  -0.05099   0.00000   0.01275   0.01275   3.73669
    R2        1.84678  -0.00092   0.00000  -0.00121  -0.00121   1.84556
    A1        1.53315   0.02134   0.00000   0.00565   0.00565   1.53880
         Item               Value     Threshold  Converged?
 Maximum Force            0.050989     0.000450     NO 
 RMS     Force            0.031918     0.000300     NO 
 Maximum Displacement     0.010581     0.001800     NO 
 RMS     Displacement     0.008747     0.001200     NO 
 Predicted change in Energy= 5.405929D-04
 GradGradGradGradGradGradGradGradGradGradGradGradGradGradGradGradGradGrad

                          Input orientation:                          
 ---------------------------------------------------------------------
 Center     Atomic      Atomic             Coordinates (Angstroms)
 Number     Number       Type             X           Y           Z
 ---------------------------------------------------------------------
      1          8           0        0.211420    0.742000    4.904604
      2         17           0        0.269555    2.713582    5.044186
      3          1           0       -0.725142    0.819766    4.638875
 ---------------------------------------------------------------------
                    Distance matrix (angstroms):
                    1          2          3
     1  O    0.000000
     2  Cl   1.977372   0.000000
     3  H    0.976631   2.177209   0.000000
 Stoichiometry    ClHO
 Framework group  CS[SG(ClHO)]
 Deg. of freedom     3
 Full point group                 CS      NOp   2
 Largest Abelian subgroup         CS      NOp   2
 Largest concise Abelian subgroup C1      NOp   1
                         Standard orientation:                         
 ---------------------------------------------------------------------
 Center     Atomic      Atomic             Coordinates (Angstroms)
 Number     Number       Type             X           Y           Z
 ---------------------------------------------------------------------
      1          8           0        0.037543    1.294099   -0.000000
      2         17           0        0.037543   -0.683273    0.000000
      3          1           0       -0.938587    1.262853    0.000000
 ---------------------------------------------------------------------
 Rotational constants (GHZ):         558.8707270          11.3096119          11.0852841
 Standard basis: SVP (5D, 7F)
 There are    29 symmetry adapted cartesian basis functions of A'  symmetry.
 There are    10 symmetry adapted cartesian basis functions of A"  symmetry.
 There are    27 symmetry adapted basis functions of A'  symmetry.
 There are    10 symmetry adapted basis functions of A"  symmetry.
    37 basis functions,    69 primitive gaussians,    39 cartesian basis functions
    13 alpha electrons       13 beta electrons
       nuclear repulsion energy        44.8624521485 Hartrees.
 NAtoms=    3 NActive=    3 NUniq=    3 SFac= 1.00D+00 NAtFMM=   60 NAOKFM=F Big=F
 Integral buffers will be    131072 words long.
 Raffenetti 2 integral format.
 Two-electron integral symmetry is turned on.
 Nuclear repulsion after empirical dispersion term =       44.8608416032 Hartrees.
 One-electron integrals computed using PRISM.
 NBasis=    37 RedAO= T EigKep=  4.60D-02  NBF=    27    10
 NBsUse=    37 1.00D-06 EigRej= -1.00D+00 NBFU=    27    10
 Initial guess from the checkpoint file:  "/tmp/Gau-16538.chk"
 B after Tr=    -0.000000    0.000000   -0.000000
         Rot=    1.000000    0.000000    0.000000    0.000212 Ang=   0.02 deg.
 Initial guess orbital symmetries:
       Occupied  (A') (A') (A') (A') (A') (A") (A') (A') (A') (A')
                 (A") (A') (A")
       Virtual   (A') (A') (A') (A') (A') (A') (A") (A') (A") (A')
                 (A") (A') (A') (A") (A') (A") (A') (A') (A') (A")
                 (A') (A') (A") (A')
 Keep R1 ints in memory in symmetry-blocked form, NReq=7153137.
 Requested convergence on RMS density matrix=1.00D-08 within 128 cycles.
 Requested convergence on MAX density matrix=1.00D-06.
 Requested convergence on             energy=1.00D-06.
 No special actions if energy rises.
 SCF Done:  E(RB3LYP) =  -535.741831050     A.U. after    8 cycles
            NFock=  8  Conv=0.92D-08     -V/T= 2.0030
 Calling FoFJK, ICntrl=      2127 FMM=F ISym2X=1 I1Cent= 0 IOpClX= 0 NMat=1 NMatS=1 NMatT=0.
 ***** Axes restored to original set *****
 -------------------------------------------------------------------
 Center     Atomic                   Forces (Hartrees/Bohr)
 Number     Number              X              Y              Z
 -------------------------------------------------------------------
      1        8          -0.003158439    0.062931747    0.003006815
      2       17           0.003584156   -0.052182597   -0.002214386
      3        1          -0.000425717   -0.010749150   -0.000792429
 -------------------------------------------------------------------
 Cartesian Forces:  Max     0.062931747 RMS     0.027561140

 GradGradGradGradGradGradGradGradGradGradGradGradGradGradGradGradGradGrad
 Berny optimization.
 FormGI is forming the generalized inverse of G from B-inverse, IUseBI=4.
 Internal  Forces:  Max     0.052080777 RMS     0.032189989
 Search for a saddle point.
 Step number   9 out of a maximum of  100
 All quantities printed in internal units (Hartrees-Bohrs-Radians)
 Swapping is turned off.
 Update second derivatives using D2CorX and points    6    7    8    9
 The second derivative matrix:
                          R1        R2        A1
           R1           0.06761
           R2          -0.00447   0.49404
           A1           0.03957  -0.00597   0.16453
 ITU=  0  0  0  0
     Eigenvalues ---    0.05350   0.17847   0.49422
 Eigenvectors required to have negative eigenvalues:
                          R1        A1        R2
   1                    0.94203  -0.33549   0.00500
 RFO step:  Lambda0=8.857476313D-02 Lambda=-9.14358843D-06.
 Linear search not attempted -- option 19 set.
 Iteration  1 RMS(Cart)=  0.00652859 RMS(Int)=  0.00000556
 Iteration  2 RMS(Cart)=  0.00000409 RMS(Int)=  0.00000000
 Iteration  3 RMS(Cart)=  0.00000000 RMS(Int)=  0.00000000
 ClnCor:  largest displacement from symmetrization is 3.51D-15 for atom     3.
 Variable       Old X    -DE/DX   Delta X   Delta X   Delta X     New X
                                 (Linear)    (Quad)   (Total)
    R1        3.73669  -0.05208   0.00000   0.00914   0.00914   3.74583
    R2        1.84556  -0.00023   0.00000   0.00023   0.00023   1.84580
    A1        1.53880   0.01990   0.00000   0.00434   0.00434   1.54314
         Item               Value     Threshold  Converged?
 Maximum Force            0.052081     0.000450     NO 
 RMS     Force            0.032190     0.000300     NO 
 Maximum Displacement     0.007775     0.001800     NO 
 RMS     Displacement     0.006530     0.001200     NO 
 Predicted change in Energy= 3.957371D-04
 GradGradGradGradGradGradGradGradGradGradGradGradGradGradGradGradGradGrad

                          Input orientation:                          
 ---------------------------------------------------------------------
 Center     Atomic      Atomic             Coordinates (Angstroms)
 Number     Number       Type             X           Y           Z
 ---------------------------------------------------------------------
      1          8           0        0.210646    0.741415    4.904345
      2         17           0        0.271395    2.717696    5.044974
      3          1           0       -0.726209    0.816236    4.638347
 ---------------------------------------------------------------------
                    Distance matrix (angstroms):
                    1          2          3
     1  O    0.000000
     2  Cl   1.982209   0.000000
     3  H    0.976755   2.185431   0.000000
 Stoichiometry    ClHO
 Framework group  CS[SG(ClHO)]
 Deg. of freedom     3
 Full point group                 CS      NOp   2
 Largest Abelian subgroup         CS      NOp   2
 Largest concise Abelian subgroup C1      NOp   1
                         Standard orientation:                         
 ---------------------------------------------------------------------
 Center     Atomic      Atomic             Coordinates (Angstroms)
 Number     Number       Type             X           Y           Z
 ---------------------------------------------------------------------
      1          8           0        0.037553    1.297099    0.000000
      2         17           0        0.037553   -0.685110    0.000000
      3          1           0       -0.938828    1.270085   -0.000000
 ---------------------------------------------------------------------
 Rotational constants (GHZ):         558.7263420          11.2516215          11.0295094
 Standard basis: SVP (5D, 7F)
 There are    29 symmetry adapted cartesian basis functions of A'  symmetry.
 There are    10 symmetry adapted cartesian basis functions of A"  symmetry.
 There are    27 symmetry adapted basis functions of A'  symmetry.
 There are    10 symmetry adapted basis functions of A"  symmetry.
    37 basis functions,    69 primitive gaussians,    39 cartesian basis functions
    13 alpha electrons       13 beta electrons
       nuclear repulsion energy        44.7575346373 Hartrees.
 NAtoms=    3 NActive=    3 NUniq=    3 SFac= 1.00D+00 NAtFMM=   60 NAOKFM=F Big=F
 Integral buffers will be    131072 words long.
 Raffenetti 2 integral format.
 Two-electron integral symmetry is turned on.
 Nuclear repulsion after empirical dispersion term =       44.7559244257 Hartrees.
 One-electron integrals computed using PRISM.
 NBasis=    37 RedAO= T EigKep=  4.62D-02  NBF=    27    10
 NBsUse=    37 1.00D-06 EigRej= -1.00D+00 NBFU=    27    10
 Initial guess from the checkpoint file:  "/tmp/Gau-16538.chk"
 B after Tr=     0.000000    0.000000   -0.000000
         Rot=    1.000000   -0.000000   -0.000000    0.000141 Ang=   0.02 deg.
 Initial guess orbital symmetries:
       Occupied  (A') (A') (A') (A') (A') (A") (A') (A') (A') (A')
                 (A") (A') (A")
       Virtual   (A') (A') (A') (A') (A') (A') (A") (A') (A") (A')
                 (A") (A') (A') (A") (A') (A") (A') (A') (A') (A")
                 (A') (A') (A") (A')
 Keep R1 ints in memory in symmetry-blocked form, NReq=7153137.
 Requested convergence on RMS density matrix=1.00D-08 within 128 cycles.
 Requested convergence on MAX density matrix=1.00D-06.
 Requested convergence on             energy=1.00D-06.
 No special actions if energy rises.
 SCF Done:  E(RB3LYP) =  -535.741435464     A.U. after    8 cycles
            NFock=  8  Conv=0.80D-08     -V/T= 2.0030
 Calling FoFJK, ICntrl=      2127 FMM=F ISym2X=1 I1Cent= 0 IOpClX= 0 NMat=1 NMatS=1 NMatT=0.
 ***** Axes restored to original set *****
 -------------------------------------------------------------------
 Center     Atomic                   Forces (Hartrees/Bohr)
 Number     Number              X              Y              Z
 -------------------------------------------------------------------
      1        8          -0.002902014    0.063107754    0.003091857
      2       17           0.003211290   -0.052925922   -0.002368400
      3        1          -0.000309275   -0.010181833   -0.000723457
 -------------------------------------------------------------------
 Cartesian Forces:  Max     0.063107754 RMS     0.027732719

 GradGradGradGradGradGradGradGradGradGradGradGradGradGradGradGradGradGrad
 Berny optimization.
 FormGI is forming the generalized inverse of G from B-inverse, IUseBI=4.
 Internal  Forces:  Max     0.052837291 RMS     0.032387676
 Search for a saddle point.
 Step number  10 out of a maximum of  100
 All quantities printed in internal units (Hartrees-Bohrs-Radians)
 Swapping is turned off.
 Update second derivatives using D2CorX and points    7    8    9   10
 The second derivative matrix:
                          R1        R2        A1
           R1           0.06466
           R2          -0.00399   0.49409
           A1           0.03833  -0.00572   0.16403
 ITU=  0  0  0  0
     Eigenvalues ---    0.05158   0.17696   0.49424
 Eigenvectors required to have negative eigenvalues:
                          R1        A1        R2
   1                    0.94657  -0.32248   0.00437
 RFO step:  Lambda0=8.752928090D-02 Lambda=-3.58293235D-06.
 Linear search not attempted -- option 19 set.
 Iteration  1 RMS(Cart)=  0.00412688 RMS(Int)=  0.00000228
 Iteration  2 RMS(Cart)=  0.00000164 RMS(Int)=  0.00000000
 Iteration  3 RMS(Cart)=  0.00000000 RMS(Int)=  0.00000000
 ClnCor:  largest displacement from symmetrization is 1.88D-15 for atom     3.
 Variable       Old X    -DE/DX   Delta X   Delta X   Delta X     New X
                                 (Linear)    (Quad)   (Total)
    R1        3.74583  -0.05284   0.00000   0.00571   0.00571   3.75154
    R2        1.84580  -0.00029   0.00000  -0.00000  -0.00000   1.84580
    A1        1.54314   0.01884   0.00000   0.00281   0.00281   1.54594
         Item               Value     Threshold  Converged?
 Maximum Force            0.052837     0.000450     NO 
 RMS     Force            0.032388     0.000300     NO 
 Maximum Displacement     0.004891     0.001800     NO 
 RMS     Displacement     0.004127     0.001200     NO 
 Predicted change in Energy= 2.509654D-04
 GradGradGradGradGradGradGradGradGradGradGradGradGradGradGradGradGradGrad

                          Input orientation:                          
 ---------------------------------------------------------------------
 Center     Atomic      Atomic             Coordinates (Angstroms)
 Number     Number       Type             X           Y           Z
 ---------------------------------------------------------------------
      1          8           0        0.210115    0.741075    4.904170
      2         17           0        0.272564    2.720285    5.045473
      3          1           0       -0.726847    0.813988    4.638023
 ---------------------------------------------------------------------
                    Distance matrix (angstroms):
                    1          2          3
     1  O    0.000000
     2  Cl   1.985229   0.000000
     3  H    0.976753   2.190618   0.000000
 Stoichiometry    ClHO
 Framework group  CS[SG(ClHO)]
 Deg. of freedom     3
 Full point group                 CS      NOp   2
 Largest Abelian subgroup         CS      NOp   2
 Largest concise Abelian subgroup C1      NOp   1
                         Standard orientation:                         
 ---------------------------------------------------------------------
 Center     Atomic      Atomic             Coordinates (Angstroms)
 Number     Number       Type             X           Y           Z
 ---------------------------------------------------------------------
      1          8           0        0.037556    1.298968    0.000000
      2         17           0        0.037556   -0.686261   -0.000000
      3          1           0       -0.938896    1.274695    0.000000
 ---------------------------------------------------------------------
 Rotational constants (GHZ):         558.7371142          11.2155770          10.9948759
 Standard basis: SVP (5D, 7F)
 There are    29 symmetry adapted cartesian basis functions of A'  symmetry.
 There are    10 symmetry adapted cartesian basis functions of A"  symmetry.
 There are    27 symmetry adapted basis functions of A'  symmetry.
 There are    10 symmetry adapted basis functions of A"  symmetry.
    37 basis functions,    69 primitive gaussians,    39 cartesian basis functions
    13 alpha electrons       13 beta electrons
       nuclear repulsion energy        44.6925652445 Hartrees.
 NAtoms=    3 NActive=    3 NUniq=    3 SFac= 1.00D+00 NAtFMM=   60 NAOKFM=F Big=F
 Integral buffers will be    131072 words long.
 Raffenetti 2 integral format.
 Two-electron integral symmetry is turned on.
[...]
           R1           0.06061
           R2          -0.00388   0.49409
           A1           0.03514  -0.00567   0.16185
 ITU=  0  0  0  0
     Eigenvalues ---    0.04960   0.17272   0.49423
 Eigenvectors required to have negative eigenvalues:
                          R1        A1        R2
   1                    0.95439  -0.29853   0.00452
 RFO step:  Lambda0=8.670399442D-02 Lambda= 0.00000000D+00.
 Linear search not attempted -- option 19 set.
 Iteration  1 RMS(Cart)=  0.00000001 RMS(Int)=  0.00000000
 ClnCor:  largest displacement from symmetrization is 2.53D-15 for atom     3.
 Variable       Old X    -DE/DX   Delta X   Delta X   Delta X     New X
                                 (Linear)    (Quad)   (Total)
    R1        3.76199  -0.05413   0.00000   0.00000   0.00000   3.76199
    R2        1.84596  -0.00026   0.00000  -0.00000  -0.00000   1.84596
    A1        1.55128   0.01693   0.00000  -0.00000  -0.00000   1.55128
         Item               Value     Threshold  Converged?
 Maximum Force            0.054134     0.000450     NO 
 RMS     Force            0.032748     0.000300     NO 
 Maximum Displacement     0.000000     0.001800     YES
 RMS     Displacement     0.000000     0.001200     YES
 Predicted change in Energy= 7.245767D-10
 GradGradGradGradGradGradGradGradGradGradGradGradGradGradGradGradGradGrad

                          Input orientation:                          
 ---------------------------------------------------------------------
 Center     Atomic      Atomic             Coordinates (Angstroms)
 Number     Number       Type             X           Y           Z
 ---------------------------------------------------------------------
      1          8           0        0.209155    0.740514    4.903858
      2         17           0        0.274764    2.725077    5.046407
      3          1           0       -0.728087    0.809757    4.637401
 ---------------------------------------------------------------------
                    Distance matrix (angstroms):
                    1          2          3
     1  O    0.000000
     2  Cl   1.990758   0.000000
     3  H    0.976841   2.200329   0.000000
 Stoichiometry    ClHO
 Framework group  CS[SG(ClHO)]
 Deg. of freedom     3
 Full point group                 CS      NOp   2
 Largest Abelian subgroup         CS      NOp   2
 Largest concise Abelian subgroup C1      NOp   1
                         Standard orientation:                         
 ---------------------------------------------------------------------
 Center     Atomic      Atomic             Coordinates (Angstroms)
 Number     Number       Type             X           Y           Z
 ---------------------------------------------------------------------
      1          8           0        0.037564    1.302382   -0.000000
      2         17           0        0.037564   -0.688375    0.000000
      3          1           0       -0.939091    1.283322   -0.000000
 ---------------------------------------------------------------------
 Rotational constants (GHZ):         558.6787191          11.1498964          10.9317252
 Standard basis: SVP (5D, 7F)
 There are    29 symmetry adapted cartesian basis functions of A'  symmetry.
 There are    10 symmetry adapted cartesian basis functions of A"  symmetry.
 There are    27 symmetry adapted basis functions of A'  symmetry.
 There are    10 symmetry adapted basis functions of A"  symmetry.
    37 basis functions,    69 primitive gaussians,    39 cartesian basis functions
    13 alpha electrons       13 beta electrons
       nuclear repulsion energy        44.5733791056 Hartrees.
 NAtoms=    3 NActive=    3 NUniq=    3 SFac= 1.00D+00 NAtFMM=   60 NAOKFM=F Big=F
 Integral buffers will be    131072 words long.
 Raffenetti 2 integral format.
 Two-electron integral symmetry is turned on.
 Nuclear repulsion after empirical dispersion term =       44.5717694720 Hartrees.
 One-electron integrals computed using PRISM.
 NBasis=    37 RedAO= T EigKep=  4.65D-02  NBF=    27    10
 NBsUse=    37 1.00D-06 EigRej= -1.00D+00 NBFU=    27    10
 Initial guess from the checkpoint file:  "/tmp/Gau-16538.chk"
 B after Tr=    -0.000000   -0.000000    0.000000
         Rot=    1.000000    0.000000   -0.000000    0.000000 Ang=   0.00 deg.
 Initial guess orbital symmetries:
       Occupied  (A') (A') (A') (A') (A') (A") (A') (A') (A') (A')
                 (A") (A') (A")
       Virtual   (A') (A') (A') (A') (A') (A') (A") (A') (A") (A')
                 (A") (A') (A') (A") (A') (A') (A") (A') (A') (A")
                 (A') (A') (A") (A')
 Keep R1 ints in memory in symmetry-blocked form, NReq=7153137.
 Requested convergence on RMS density matrix=1.00D-08 within 128 cycles.
 Requested convergence on MAX density matrix=1.00D-06.
 Requested convergence on             energy=1.00D-06.
 No special actions if energy rises.
 SCF Done:  E(RB3LYP) =  -535.740716993     A.U. after    1 cycles
            NFock=  1  Conv=0.24D-08     -V/T= 2.0031
 Calling FoFJK, ICntrl=      2127 FMM=F ISym2X=1 I1Cent= 0 IOpClX= 0 NMat=1 NMatS=1 NMatT=0.
 ***** Axes restored to original set *****
 -------------------------------------------------------------------
 Center     Atomic                   Forces (Hartrees/Bohr)
 Number     Number              X              Y              Z
 -------------------------------------------------------------------
      1        8          -0.002309885    0.063349086    0.003277953
      2       17           0.002537973   -0.054197275   -0.002642098
      3        1          -0.000228087   -0.009151811   -0.000635854
 -------------------------------------------------------------------
 Cartesian Forces:  Max     0.063349086 RMS     0.028016197

 GradGradGradGradGradGradGradGradGradGradGradGradGradGradGradGradGradGrad
 Berny optimization.
 Internal  Forces:  Max     0.054134253 RMS     0.032748072
 Search for a saddle point.
 Step number  99 out of a maximum of  100
 All quantities printed in internal units (Hartrees-Bohrs-Radians)
 Swapping is turned off.
 Update second derivatives using D2CorX and points   99
 The second derivative matrix:
                          R1        R2        A1
           R1           0.06061
           R2          -0.00388   0.49409
           A1           0.03514  -0.00567   0.16185
 ITU=  0  0  0  0
     Eigenvalues ---    0.04960   0.17272   0.49423
 Eigenvectors required to have negative eigenvalues:
                          R1        A1        R2
   1                    0.95439  -0.29853   0.00452
 RFO step:  Lambda0=8.670399831D-02 Lambda= 0.00000000D+00.
 Linear search not attempted -- option 19 set.
 Iteration  1 RMS(Cart)=  0.00000002 RMS(Int)=  0.00000000
 ClnCor:  largest displacement from symmetrization is 3.24D-15 for atom     1.
 Variable       Old X    -DE/DX   Delta X   Delta X   Delta X     New X
                                 (Linear)    (Quad)   (Total)
    R1        3.76199  -0.05413   0.00000   0.00000   0.00000   3.76199
    R2        1.84596  -0.00026   0.00000   0.00000   0.00000   1.84596
    A1        1.55128   0.01693   0.00000  -0.00000  -0.00000   1.55128
         Item               Value     Threshold  Converged?
 Maximum Force            0.054134     0.000450     NO 
 RMS     Force            0.032748     0.000300     NO 
 Maximum Displacement     0.000000     0.001800     YES
 RMS     Displacement     0.000000     0.001200     YES
 Predicted change in Energy= 1.906927D-09
 GradGradGradGradGradGradGradGradGradGradGradGradGradGradGradGradGradGrad

                          Input orientation:                          
 ---------------------------------------------------------------------
 Center     Atomic      Atomic             Coordinates (Angstroms)
 Number     Number       Type             X           Y           Z
 ---------------------------------------------------------------------
      1          8           0        0.209155    0.740514    4.903858
      2         17           0        0.274764    2.725077    5.046407
      3          1           0       -0.728087    0.809757    4.637401
 ---------------------------------------------------------------------
                    Distance matrix (angstroms):
                    1          2          3
     1  O    0.000000
     2  Cl   1.990758   0.000000
     3  H    0.976841   2.200329   0.000000
 Stoichiometry    ClHO
 Framework group  CS[SG(ClHO)]
 Deg. of freedom     3
 Full point group                 CS      NOp   2
 Largest Abelian subgroup         CS      NOp   2
 Largest concise Abelian subgroup C1      NOp   1
                         Standard orientation:                         
 ---------------------------------------------------------------------
 Center     Atomic      Atomic             Coordinates (Angstroms)
 Number     Number       Type             X           Y           Z
 ---------------------------------------------------------------------
      1          8           0        0.037564    1.302382   -0.000000
      2         17           0        0.037564   -0.688375    0.000000
      3          1           0       -0.939091    1.283322    0.000000
 ---------------------------------------------------------------------
 Rotational constants (GHZ):         558.6786997          11.1498963          10.9317251
 Standard basis: SVP (5D, 7F)
 There are    29 symmetry adapted cartesian basis functions of A'  symmetry.
 There are    10 symmetry adapted cartesian basis functions of A"  symmetry.
 There are    27 symmetry adapted basis functions of A'  symmetry.
 There are    10 symmetry adapted basis functions of A"  symmetry.
    37 basis functions,    69 primitive gaussians,    39 cartesian basis functions
    13 alpha electrons       13 beta electrons
       nuclear repulsion energy        44.5733787551 Hartrees.
 NAtoms=    3 NActive=    3 NUniq=    3 SFac= 1.00D+00 NAtFMM=   60 NAOKFM=F Big=F
 Integral buffers will be    131072 words long.
 Raffenetti 2 integral format.
 Two-electron integral symmetry is turned on.
 Nuclear repulsion after empirical dispersion term =       44.5717691215 Hartrees.
 One-electron integrals computed using PRISM.
 NBasis=    37 RedAO= T EigKep=  4.65D-02  NBF=    27    10
 NBsUse=    37 1.00D-06 EigRej= -1.00D+00 NBFU=    27    10
 Initial guess from the checkpoint file:  "/tmp/Gau-16538.chk"
 B after Tr=     0.000000   -0.000000   -0.000000
         Rot=    1.000000   -0.000000    0.000000   -0.000000 Ang=   0.00 deg.
 Initial guess orbital symmetries:
       Occupied  (A') (A') (A') (A') (A') (A") (A') (A') (A') (A')
                 (A") (A') (A")
       Virtual   (A') (A') (A') (A') (A') (A') (A") (A') (A") (A')
                 (A") (A') (A') (A") (A') (A') (A") (A') (A') (A")
                 (A') (A') (A") (A')
 Keep R1 ints in memory in symmetry-blocked form, NReq=7153137.
 Requested convergence on RMS density matrix=1.00D-08 within 128 cycles.
 Requested convergence on MAX density matrix=1.00D-06.
 Requested convergence on             energy=1.00D-06.
 No special actions if energy rises.
 SCF Done:  E(RB3LYP) =  -535.740716991     A.U. after    1 cycles
            NFock=  1  Conv=0.69D-08     -V/T= 2.0031
 Calling FoFJK, ICntrl=      2127 FMM=F ISym2X=1 I1Cent= 0 IOpClX= 0 NMat=1 NMatS=1 NMatT=0.
 ***** Axes restored to original set *****
 -------------------------------------------------------------------
 Center     Atomic                   Forces (Hartrees/Bohr)
 Number     Number              X              Y              Z
 -------------------------------------------------------------------
      1        8          -0.002309941    0.063349082    0.003277936
      2       17           0.002537971   -0.054197262   -0.002642098
      3        1          -0.000228030   -0.009151820   -0.000635838
 -------------------------------------------------------------------
 Cartesian Forces:  Max     0.063349082 RMS     0.028016194

 GradGradGradGradGradGradGradGradGradGradGradGradGradGradGradGradGradGrad
 Berny optimization.
 Internal  Forces:  Max     0.054134241 RMS     0.032748067
 Search for a saddle point.
 Step number 100 out of a maximum of  100
 All quantities printed in internal units (Hartrees-Bohrs-Radians)
 Swapping is turned off.
 Update second derivatives using D2CorX and points  100
 The second derivative matrix:
                          R1        R2        A1
           R1           0.06061
           R2          -0.00388   0.49409
           A1           0.03514  -0.00567   0.16185
 ITU=  0  0  0  0
     Eigenvalues ---    0.04960   0.17272   0.49423
 Eigenvectors required to have negative eigenvalues:
                          R1        A1        R2
   1                    0.95439  -0.29853   0.00452
 RFO step:  Lambda0=8.670398997D-02 Lambda= 0.00000000D+00.
 Linear search not attempted -- option 19 set.
 Iteration  1 RMS(Cart)=  0.00000005 RMS(Int)=  0.00000000
 ClnCor:  largest displacement from symmetrization is 2.84D-15 for atom     3.
 Variable       Old X    -DE/DX   Delta X   Delta X   Delta X     New X
                                 (Linear)    (Quad)   (Total)
    R1        3.76199  -0.05413   0.00000   0.00000   0.00000   3.76199
    R2        1.84596  -0.00026   0.00000  -0.00000  -0.00000   1.84596
    A1        1.55128   0.01693   0.00000   0.00000   0.00000   1.55128
         Item               Value     Threshold  Converged?
 Maximum Force            0.054134     0.000450     NO 
 RMS     Force            0.032748     0.000300     NO 
 Maximum Displacement     0.000000     0.001800     YES
 RMS     Displacement     0.000000     0.001200     YES
 Predicted change in Energy= 5.170311D-09
 Optimization stopped.
    -- Number of steps exceeded,  NStep= 100
    -- Flag reset to prevent archiving.
                           ----------------------------
                           ! Non-Optimized Parameters !
                           ! (Angstroms and Degrees)  !
 --------------------------                            --------------------------
 ! Name  Definition              Value          Derivative Info.                !
 --------------------------------------------------------------------------------
 ! R1    R(1,2)                  1.9908         -DE/DX =   -0.0541              !
 ! R2    R(1,3)                  0.9768         -DE/DX =   -0.0003              !
 ! A1    A(2,1,3)               88.882          -DE/DX =    0.0169              !
 --------------------------------------------------------------------------------
 GradGradGradGradGradGradGradGradGradGradGradGradGradGradGradGradGradGrad

                          Input orientation:                          
 ---------------------------------------------------------------------
 Center     Atomic      Atomic             Coordinates (Angstroms)
 Number     Number       Type             X           Y           Z
 ---------------------------------------------------------------------
      1          8           0        0.209155    0.740514    4.903858
      2         17           0        0.274764    2.725077    5.046407
      3          1           0       -0.728087    0.809757    4.637401
 ---------------------------------------------------------------------
                    Distance matrix (angstroms):
                    1          2          3
     1  O    0.000000
     2  Cl   1.990758   0.000000
     3  H    0.976841   2.200329   0.000000
 Stoichiometry    ClHO
 Framework group  CS[SG(ClHO)]
 Deg. of freedom     3
 Full point group                 CS      NOp   2
 Largest Abelian subgroup         CS      NOp   2
 Largest concise Abelian subgroup C1      NOp   1
                         Standard orientation:                         
 ---------------------------------------------------------------------
 Center     Atomic      Atomic             Coordinates (Angstroms)
 Number     Number       Type             X           Y           Z
 ---------------------------------------------------------------------
      1          8           0        0.037564    1.302382   -0.000000
      2         17           0        0.037564   -0.688375    0.000000
      3          1           0       -0.939091    1.283322    0.000000
 ---------------------------------------------------------------------
 Rotational constants (GHZ):         558.6786997          11.1498963          10.9317251

 **********************************************************************

            Population analysis using the SCF density.

 **********************************************************************

 Orbital symmetries:
       Occupied  (A') (A') (A') (A') (A') (A") (A') (A') (A') (A')
                 (A") (A') (A")
       Virtual   (A') (A') (A') (A') (A') (A') (A") (A') (A") (A')
                 (A") (A') (A') (A") (A') (A') (A") (A') (A') (A")
                 (A') (A') (A") (A')
 The electronic state is 1-A'.
 Alpha  occ. eigenvalues -- -101.54781 -19.21736  -9.49698  -7.27032  -7.25448
 Alpha  occ. eigenvalues --   -7.25418  -1.00596  -0.80211  -0.48844  -0.42214
 Alpha  occ. eigenvalues --   -0.37261  -0.32858  -0.30402
 Alpha virt. eigenvalues --   -0.15434   0.05443   0.46782   0.56277   0.67438
 Alpha virt. eigenvalues --    0.69923   0.69965   0.76052   0.76198   0.83082
 Alpha virt. eigenvalues --    0.83434   0.91345   0.97529   0.98391   1.04013
 Alpha virt. eigenvalues --    1.39527   1.39787   1.46894   2.14639   2.58825
 Alpha virt. eigenvalues --    2.70980   2.90718   2.92355   3.63782
          Condensed to atoms (all electrons):
               1          2          3
     1  O    7.800827   0.149208   0.287468
     2  Cl   0.149208  16.836118  -0.010679
     3  H    0.287468  -0.010679   0.511062
 Mulliken charges:
               1
     1  O   -0.237502
     2  Cl   0.025353
     3  H    0.212149
 Sum of Mulliken charges =  -0.00000
 Mulliken charges with hydrogens summed into heavy atoms:
               1
     1  O   -0.025353
     2  Cl   0.025353
 Electronic spatial extent (au):  <R**2>=            124.9244
 Charge=             -0.0000 electrons
 Dipole moment (field-independent basis, Debye):
    X=             -1.6595    Y=             -0.1158    Z=              0.0000  Tot=              1.6635
 Quadrupole moment (field-independent basis, Debye-Ang):
   XX=            -16.6008   YY=            -16.4782   ZZ=            -18.7623
   XY=             -2.3719   XZ=             -0.0000   YZ=             -0.0000
 Traceless Quadrupole moment (field-independent basis, Debye-Ang):
   XX=              0.6796   YY=              0.8023   ZZ=             -1.4819
   XY=             -2.3719   XZ=             -0.0000   YZ=             -0.0000
 Octapole moment (field-independent basis, Debye-Ang**2):
  XXX=             -2.2221  YYY=              0.1106  ZZZ=             -0.0000  XYY=             -3.3517
  XXY=              3.2908  XXZ=             -0.0000  XZZ=             -0.2399  YZZ=              0.5192
  YYZ=             -0.0000  XYZ=             -0.0000
 Hexadecapole moment (field-independent basis, Debye-Ang**3):
 XXXX=            -17.0184 YYYY=            -98.1615 ZZZZ=            -16.8092 XXXY=             -0.3267
 XXXZ=             -0.0000 YYYX=             -2.5280 YYYZ=             -0.0000 ZZZX=             -0.0000
 ZZZY=              0.0000 XXYY=            -18.4308 XXZZ=             -5.9551 YYZZ=            -21.6554
 XXYZ=              0.0000 YYXZ=             -0.0000 ZZXY=              0.5381
 N-N= 4.457176912153D+01 E-N=-1.361896502857D+03  KE= 5.341095091210D+02
 Symmetry A'   KE= 4.833602394124D+02
 Symmetry A"   KE= 5.074926970857D+01


 CONFIDENCE IS WHAT YOU FEEL BEFORE YOU FULLY
 COMPREHEND THE SITUATION.
 Error termination request processed by link 9999.
 Error termination via Lnk1e in /share/apps/g16.a03/g16/l9999.exe at Thu Mar  6 16:39:05 2025.
 Job cpu time:       0 days  0 hours 13 minutes 23.4 seconds.
 Elapsed time:       0 days  0 hours  1 minutes 44.3 seconds.
 File lengths (MBytes):  RWF=      6 Int=      0 D2E=      0 Chk=      1 Scr=      1
