 Entering Gaussian System, Link 0=g16
 Input=ts.gjf
 Output=ts.log
 Initial command:
 /share/apps/g16.a03/g16/l1.exe "/tmp/Gau-5430.inp" -scrdir="/tmp/"
 Entering Link 1 = /share/apps/g16.a03/g16/l1.exe PID=      5431.
  
 Copyright (c) 1988,1990,1992,1993,1995,1998,2003,2009,2016,
            Gaussian, Inc.  All Rights Reserved.
  
 This is part of the Gaussian(R) 16 program.  It is based on
 the Gaussian(R) 09 system (copyright 2009, Gaussian, Inc.),
 the Gaussian(R) 03 system (copyright 2003, Gaussian, Inc.),
 the Gaussian(R) 98 system (copyright 1998, Gaussian, Inc.),
 the Gaussian(R) 94 system (copyright 1995, Gaussian, Inc.),
 the Gaussian 92(TM) system (copyright 1992, Gaussian, Inc.),
 the Gaussian 90(TM) system (copyright 1990, Gaussian, Inc.),
 the Gaussian 88(TM) system (copyright 1988, Gaussian, Inc.),
 the Gaussian 86(TM) system (copyright 1986, Carnegie Mellon
 University), and the Gaussian 82(TM) system (copyright 1983,
 Carnegie Mellon University). Gaussian is a federally registered
 trademark of Gaussian, Inc.
  
 This software contains proprietary and confidential information,
 including trade secrets, belonging to Gaussian, Inc.
  
 This software is provided under written license and may be
 used, copied, transmitted, or stored only in accord with that
 written license.
  
 The following legend is applicable only to US Government
 contracts under FAR:
  
                    RESTRICTED RIGHTS LEGEND
  
 Use, reproduction and disclosure by the US Government is
 subject to restrictions as set forth in subparagraphs (a)
 and (c) of the Commercial Computer Software - Restricted
 Rights clause in FAR 52.227-19.
  
 Gaussian, Inc.
 340 Quinnipiac St., Bldg. 40, Wallingford CT 06492
  
  
 ---------------------------------------------------------------
 Warning -- This program may not be used in any manner that
 competes with the business of Gaussian, Inc. or will provide
 assistance to any competitor of Gaussian, Inc.  The licensee
 of this program is prohibited from giving any competitor of
 Gaussian, Inc. access to this program.  By using this program,
 the user acknowledges that Gaussian, Inc. is engaged in the
 business of creating and licensing software in the field of
 computational chemistry and represents and warrants to the
 licensee that it is not a competitor of Gaussian, Inc. and that
 it will not use this program in any manner prohibited above.
 ---------------------------------------------------------------
  

 Cite this work as:
 Gaussian 16, Revision A.03,
 M. J. Frisch, G. W. Trucks, H. B. Schlegel, G. E. Scuseria, 
 M. A. Robb, J. R. Cheeseman, G. Scalmani, V. Barone, 
 G. A. Petersson, H. Nakatsuji, X. Li, M. Caricato, A. V. Marenich, 
 J. Bloino, B. G. Janesko, R. Gomperts, B. Mennucci, H. P. Hratchian, 
 J. V. Ortiz, A. F. Izmaylov, J. L. Sonnenberg, D. Williams-Young, 
 F. Ding, F. Lipparini, F. Egidi, J. Goings, B. Peng, A. Petrone, 
 T. Henderson, D. Ranasinghe, V. G. Zakrzewski, J. Gao, N. Rega, 
 G. Zheng, W. Liang, M. Hada, M. Ehara, K. Toyota, R. Fukuda, 
 J. Hasegawa, M. Ishida, T. Nakajima, Y. Honda, O. Kitao, H. Nakai, 
 T. Vreven, K. Throssell, J. A. Montgomery, Jr., J. E. Peralta, 
 F. Ogliaro, M. J. Bearpark, J. J. Heyd, E. N. Brothers, K. N. Kudin, 
 V. N. Staroverov, T. A. Keith, R. Kobayashi, J. Normand, 
 K. Raghavachari, A. P. Rendell, J. C. Burant, S. S. Iyengar, 
 J. Tomasi, M. Cossi, J. M. Millam, M. Klene, C. Adamo, R. Cammi, 
 J. W. Ochterski, R. L. Martin, K. Morokuma, O. Farkas, 
 J. B. Foresman, and D. J. Fox, Gaussian, Inc., Wallingford CT, 2016.
 
 ******************************************
 Gaussian 16:  EM64L-G16RevA.03 25-Dec-2016
                 6-Mar-2025 
 ******************************************
 %nproc=8
 Will use up to    8 processors via shared memory.
 %mem=4000MB
 --------------------------------------------------------------------
 #opt=(noeigen,calcfc,ts,recalc=5,maxcyc=200) freq B3LYP/SVP em=GD3BJ
 --------------------------------------------------------------------
 1/5=1,6=200,10=4,11=1,18=20,26=3,38=1,71=5/1,3;
 2/9=110,12=2,17=6,18=5,40=1/2;
 3/5=18,7=101,11=2,25=1,30=1,71=2,74=-5,124=41,140=1/1,2,3;
 4//1;
 5/5=2,38=5/2;
 8/6=4,10=90,11=11/1;
 11/6=1,8=1,9=11,15=111,16=1/1,2,10;
 10/6=1,13=1/2;
 6/7=2,8=2,9=2,10=2,28=1/1;
 7/10=1,18=20,25=1/1,2,3,16;
 1/5=1,6=200,10=4,11=1,18=20,26=3,71=5/3(2);
 2/9=110/2;
 99//99;
 2/9=110/2;
 3/5=18,7=101,11=2,25=1,30=1,71=1,74=-5,124=41/1,2,3;
 4/5=5,16=3,69=1/1;
 5/5=2,38=5/2;
 7//1,2,3,16;
 1/5=1,6=200,11=1,18=20,26=3,71=5/3(-5);
 2/9=110/2;
 6/7=2,8=2,9=2,10=2,19=2,28=1/1;
 99/9=1/99;
 -----------
 ts-1307.gjf
 -----------
 Symbolic Z-matrix:
 Charge =  0 Multiplicity = 1
 O                     4.80727  -4.65411   2.3182 
 Cl                    4.74114  -2.49249   1.88911 
 H                     3.903    -4.76111   2.62922 
 
 Add virtual bond connecting atoms Cl2        and O1         Dist= 4.17D+00.

 GradGradGradGradGradGradGradGradGradGradGradGradGradGradGradGradGradGrad
 Berny optimization.
 Initialization pass.
                           ----------------------------
                           !    Initial Parameters    !
                           ! (Angstroms and Degrees)  !
 --------------------------                            --------------------------
 ! Name  Definition              Value          Derivative Info.                !
 --------------------------------------------------------------------------------
 ! R1    R(1,2)                  2.2048         calculate D2E/DX2 analytically  !
 ! R2    R(1,3)                  0.9622         calculate D2E/DX2 analytically  !
 ! A1    A(2,1,3)               98.2646         calculate D2E/DX2 analytically  !
 --------------------------------------------------------------------------------
 Trust Radius=3.00D-01 FncErr=1.00D-07 GrdErr=1.00D-06 EigMax=2.50D+02 EigMin=1.00D-04
 Number of steps in this run=    100 maximum allowed number of steps=    100.
 Search for a saddle point of order  1.
 GradGradGradGradGradGradGradGradGradGradGradGradGradGradGradGradGradGrad

                          Input orientation:                          
 ---------------------------------------------------------------------
 Center     Atomic      Atomic             Coordinates (Angstroms)
 Number     Number       Type             X           Y           Z
 ---------------------------------------------------------------------
      1          8           0        4.807270   -4.654107    2.318204
      2         17           0        4.741140   -2.492489    1.889111
      3          1           0        3.903002   -4.761109    2.629222
 ---------------------------------------------------------------------
                    Distance matrix (angstroms):
                    1          2          3
     1  O    0.000000
     2  Cl   2.204787   0.000000
     3  H    0.962227   2.529205   0.000000
 Stoichiometry    ClHO
 Framework group  CS[SG(ClHO)]
 Deg. of freedom     3
 Full point group                 CS      NOp   2
 Largest Abelian subgroup         CS      NOp   2
 Largest concise Abelian subgroup C1      NOp   1
                         Standard orientation:                         
 ---------------------------------------------------------------------
 Center     Atomic      Atomic             Coordinates (Angstroms)
 Number     Number       Type             X           Y           Z
 ---------------------------------------------------------------------
      1          8           0        0.036624    1.436272    0.000000
      2         17           0        0.036624   -0.768515   -0.000000
      3          1           0       -0.915610    1.574586    0.000000
 ---------------------------------------------------------------------
 Rotational constants (GHZ):         592.9044806           9.0104455           8.8755624
 Standard basis: SVP (5D, 7F)
 There are    29 symmetry adapted cartesian basis functions of A'  symmetry.
 There are    10 symmetry adapted cartesian basis functions of A"  symmetry.
 There are    27 symmetry adapted basis functions of A'  symmetry.
 There are    10 symmetry adapted basis functions of A"  symmetry.
    37 basis functions,    69 primitive gaussians,    39 cartesian basis functions
    13 alpha electrons       13 beta electrons
       nuclear repulsion energy        40.5982016822 Hartrees.
 NAtoms=    3 NActive=    3 NUniq=    3 SFac= 1.00D+00 NAtFMM=   60 NAOKFM=F Big=F
 Integral buffers will be    131072 words long.
 Raffenetti 2 integral format.
 Two-electron integral symmetry is turned on.
 Nuclear repulsion after empirical dispersion term =       40.5965664264 Hartrees.
 One-electron integrals computed using PRISM.
 NBasis=    37 RedAO= T EigKep=  5.10D-02  NBF=    27    10
 NBsUse=    37 1.00D-06 EigRej= -1.00D+00 NBFU=    27    10
 ExpMin= 1.22D-01 ExpMax= 1.04D+04 ExpMxC= 1.57D+03 IAcc=3 IRadAn=         5 AccDes= 0.00D+00
 Harris functional with IExCor=  402 and IRadAn=       5 diagonalized for initial guess.
 HarFok:  IExCor=  402 AccDes= 0.00D+00 IRadAn=         5 IDoV= 1 UseB2=F ITyADJ=14
 ICtDFT=  3500011 ScaDFX=  1.000000  1.000000  1.000000  1.000000
 FoFCou: FMM=F IPFlag=           0 FMFlag=      100000 FMFlg1=           0
         NFxFlg=           0 DoJE=T BraDBF=F KetDBF=T FulRan=T
         wScrn=  0.000000 ICntrl=       500 IOpCl=  0 I1Cent=   200000004 NGrid=           0
         NMat0=    1 NMatS0=      1 NMatT0=    0 NMatD0=    1 NMtDS0=    0 NMtDT0=    0
 Petite list used in FoFCou.
 Initial guess orbital symmetries:
       Occupied  (A') (A') (A') (A') (A') (A") (A') (A') (A') (A')
                 (A") (A') (A")
       Virtual   (A') (A') (A') (A') (A') (A') (A") (A') (A") (A')
                 (A") (A') (A') (A") (A') (A') (A") (A') (A') (A")
                 (A') (A") (A') (A')
 The electronic state of the initial guess is 1-A'.
 Keep R1 ints in memory in symmetry-blocked form, NReq=7153137.
 Requested convergence on RMS density matrix=1.00D-08 within 128 cycles.
 Requested convergence on MAX density matrix=1.00D-06.
 Requested convergence on             energy=1.00D-06.
 No special actions if energy rises.
 Integral accuracy reduced to 1.0D-05 until final iterations.
 Initial convergence to 1.0D-05 achieved.  Increase integral accuracy.
 SCF Done:  E(RB3LYP) =  -535.714929792     A.U. after   13 cycles
            NFock= 13  Conv=0.70D-08     -V/T= 2.0032
 DoSCS=F DFT=T ScalE2(SS,OS)=  1.000000  1.000000
 Range of M.O.s used for correlation:     1    37
 NBasis=    37 NAE=    13 NBE=    13 NFC=     0 NFV=     0
 NROrb=     37 NOA=    13 NOB=    13 NVA=    24 NVB=    24
 Symmetrizing basis deriv contribution to polar:
 IMax=3 JMax=2 DiffMx= 0.00D+00
 G2DrvN: will do     4 centers at a time, making    1 passes.
 Calling FoFCou, ICntrl=  3107 FMM=F I1Cent=   0 AccDes= 0.00D+00.
 End of G2Drv F.D. properties file   721 does not exist.
 End of G2Drv F.D. properties file   722 does not exist.
 End of G2Drv F.D. properties file   788 does not exist.
          IDoAtm=111
          Differentiating once with respect to nuclear coordinates.
 Keep R1 ints in memory in symmetry-blocked form, NReq=7127942.
          There are    12 degrees of freedom in the 1st order CPHF.  IDoFFX=6 NUNeed=     0.
      6 vectors produced by pass  0 Test12= 2.60D-15 8.33D-09 XBig12= 7.78D-02 1.88D-01.
 AX will form     6 AO Fock derivatives at one time.
      6 vectors produced by pass  1 Test12= 2.60D-15 8.33D-09 XBig12= 1.20D-01 1.55D-01.
      6 vectors produced by pass  2 Test12= 2.60D-15 8.33D-09 XBig12= 1.80D-03 1.84D-02.
      6 vectors produced by pass  3 Test12= 2.60D-15 8.33D-09 XBig12= 1.25D-04 4.01D-03.
      6 vectors produced by pass  4 Test12= 2.60D-15 8.33D-09 XBig12= 1.65D-06 4.69D-04.
      6 vectors produced by pass  5 Test12= 2.60D-15 8.33D-09 XBig12= 4.83D-09 2.21D-05.
      3 vectors produced by pass  6 Test12= 2.60D-15 8.33D-09 XBig12= 4.50D-12 7.91D-07.
      1 vectors produced by pass  7 Test12= 2.60D-15 8.33D-09 XBig12= 2.28D-15 1.33D-08.
 InvSVY:  IOpt=1 It=  1 EMax= 2.22D-16
 Solved reduced A of dimension    40 with     6 vectors.
 End of Minotr F.D. properties file   721 does not exist.
 End of Minotr F.D. properties file   722 does not exist.
 End of Minotr F.D. properties file   788 does not exist.

 **********************************************************************

            Population analysis using the SCF density.

 **********************************************************************

 Orbital symmetries:
       Occupied  (A') (A') (A') (A') (A') (A") (A') (A') (A') (A')
                 (A") (A') (A")
       Virtual   (A') (A') (A') (A') (A') (A") (A') (A') (A") (A')
                 (A") (A') (A') (A") (A') (A') (A") (A') (A') (A")
                 (A') (A') (A") (A')
 The electronic state is 1-A'.
 Alpha  occ. eigenvalues -- -101.54875 -19.22020  -9.49663  -7.27017  -7.25416
 Alpha  occ. eigenvalues --   -7.25399  -0.99154  -0.80444  -0.48226  -0.39672
 Alpha  occ. eigenvalues --   -0.35742  -0.32941  -0.31384
 Alpha virt. eigenvalues --   -0.19696   0.05588   0.46238   0.56919   0.67049
 Alpha virt. eigenvalues --    0.71587   0.71805   0.76563   0.76580   0.82723
 Alpha virt. eigenvalues --    0.83014   0.90078   0.94722   0.96130   1.02063
 Alpha virt. eigenvalues --    1.29548   1.40334   1.49411   2.17265   2.58366
 Alpha virt. eigenvalues --    2.64484   2.91940   2.94002   3.64985
          Condensed to atoms (all electrons):
               1          2          3
     1  O    7.776963   0.145163   0.286642
     2  Cl   0.145163  16.848835  -0.002236
     3  H    0.286642  -0.002236   0.515062
 Mulliken charges:
               1
     1  O   -0.208769
     2  Cl   0.008237
     3  H    0.200531
 Sum of Mulliken charges =  -0.00000
 Mulliken charges with hydrogens summed into heavy atoms:
               1
     1  O   -0.008237
     2  Cl   0.008237
 APT charges:
               1
     1  O   -0.425617
     2  Cl  -0.002689
     3  H    0.428306
 Sum of APT charges =  -0.00000
 APT charges with hydrogens summed into heavy atoms:
               1
     1  O    0.002689
     2  Cl  -0.002689
 Electronic spatial extent (au):  <R**2>=            144.4908
 Charge=             -0.0000 electrons
 Dipole moment (field-independent basis, Debye):
    X=             -1.6645    Y=              0.1782    Z=              0.0000  Tot=              1.6740
 Quadrupole moment (field-independent basis, Debye-Ang):
   XX=            -16.7608   YY=            -15.1835   ZZ=            -18.8105
   XY=             -2.8750   XZ=              0.0000   YZ=             -0.0000
 Traceless Quadrupole moment (field-independent basis, Debye-Ang):
   XX=              0.1575   YY=              1.7348   ZZ=             -1.8923
   XY=             -2.8750   XZ=              0.0000   YZ=             -0.0000
 Octapole moment (field-independent basis, Debye-Ang**2):
  XXX=             -2.1241  YYY=              2.8694  ZZZ=              0.0000  XYY=             -4.6259
  XXY=              3.7373  XXZ=              0.0000  XZZ=             -0.2500  YZZ=              0.5742
  YYZ=              0.0000  XYZ=             -0.0000
 Hexadecapole moment (field-independent basis, Debye-Ang**3):
 XXXX=            -17.1425 YYYY=           -112.7376 ZZZZ=            -16.8666 XXXY=             -0.3542
 XXXZ=              0.0000 YYYX=             -5.3745 YYYZ=             -0.0000 ZZZX=              0.0000
 ZZZY=              0.0000 XXYY=            -20.8734 XXZZ=             -5.9529 YYZZ=            -25.4733
 XXYZ=              0.0000 YYXZ=              0.0000 ZZXY=              0.6301
 N-N= 4.059656642644D+01 E-N=-1.353909993349D+03  KE= 5.340179197495D+02
 Symmetry A'   KE= 4.832692655142D+02
 Symmetry A"   KE= 5.074865423527D+01
  Exact polarizability:   0.000   0.000   0.000   0.000   0.000   0.000
 Approx polarizability:  14.139  -1.277  95.995  -0.000  -0.000   9.584
 Calling FoFJK, ICntrl=    100147 FMM=F ISym2X=1 I1Cent= 0 IOpClX= 0 NMat=1 NMatS=1 NMatT=0.
 ***** Axes restored to original set *****
 -------------------------------------------------------------------
 Center     Atomic                   Forces (Hartrees/Bohr)
 Number     Number              X              Y              Z
 -------------------------------------------------------------------
      1        8           0.017997328    0.061299339   -0.018513564
      2       17          -0.000967512   -0.066449737    0.014148647
      3        1          -0.017029816    0.005150398    0.004364917
 -------------------------------------------------------------------
 Cartesian Forces:  Max     0.066449737 RMS     0.032277523
 FormGI is forming the generalized inverse of G from B-inverse, IUseBI=4.

 GradGradGradGradGradGradGradGradGradGradGradGradGradGradGradGradGradGrad
 Berny optimization.
 Internal  Forces:  Max     0.067873756 RMS     0.041078469
 Search for a saddle point.
 Step number   1 out of a maximum of  100
 All quantities printed in internal units (Hartrees-Bohrs-Radians)
 Swapping is turned off.
 Second derivative matrix not updated -- analytic derivatives used.
 The second derivative matrix:
                          R1        R2        A1
           R1           0.00194
           R2          -0.00421   0.55456
           A1           0.00779  -0.00220   0.10710
 ITU=  0
     Eigenvalues ---    0.00133   0.10766   0.55460
 Eigenvectors required to have negative eigenvalues:
                          R1        A1        R2
   1                    0.99728  -0.07335   0.00729
 RFO step:  Lambda0=6.727575943D-02 Lambda=-3.44514365D-03.
 Linear search not attempted -- option 19 set.
 Iteration  1 RMS(Cart)=  0.11495106 RMS(Int)=  0.01112784
 Iteration  2 RMS(Cart)=  0.00986930 RMS(Int)=  0.00004513
 Iteration  3 RMS(Cart)=  0.00005194 RMS(Int)=  0.00000000
 Iteration  4 RMS(Cart)=  0.00000000 RMS(Int)=  0.00000000
 ClnCor:  largest displacement from symmetrization is 3.32D-15 for atom     3.
 Variable       Old X    -DE/DX   Delta X   Delta X   Delta X     New X
                                 (Linear)    (Quad)   (Total)
    R1        4.16644  -0.06787   0.00000   0.15204   0.15204   4.31848
    R2        1.81835   0.01684   0.00000   0.03153   0.03153   1.84987
    A1        1.71504  -0.01311   0.00000  -0.17337  -0.17337   1.54167
         Item               Value     Threshold  Converged?
 Maximum Force            0.067874     0.000450     NO 
 RMS     Force            0.041078     0.000300     NO 
 Maximum Displacement     0.138573     0.001800     NO 
 RMS     Displacement     0.118594     0.001200     NO 
 Predicted change in Energy= 9.210138D-03
 GradGradGradGradGradGradGradGradGradGradGradGradGradGradGradGradGradGrad

                          Input orientation:                          
 ---------------------------------------------------------------------
 Center     Atomic      Atomic             Coordinates (Angstroms)
 Number     Number       Type             X           Y           Z
 ---------------------------------------------------------------------
      1          8           0        4.836345   -4.727436    2.324193
      2         17           0        4.712693   -2.485918    1.896826
      3          1           0        3.902374   -4.694349    2.615518
 ---------------------------------------------------------------------
                    Distance matrix (angstroms):
                    1          2          3
     1  O    0.000000
     2  Cl   2.285243   0.000000
     3  H    0.978912   2.459736   0.000000
 Stoichiometry    ClHO
 Framework group  CS[SG(ClHO)]
 Deg. of freedom     3
 Full point group                 CS      NOp   2
 Largest Abelian subgroup         CS      NOp   2
 Largest concise Abelian subgroup C1      NOp   1
                         Standard orientation:                         
 ---------------------------------------------------------------------
 Center     Atomic      Atomic             Coordinates (Angstroms)
 Number     Number       Type             X           Y           Z
 ---------------------------------------------------------------------
      1          8           0        0.037634    1.495294    0.000000
      2         17           0        0.037634   -0.789949   -0.000000
      3          1           0       -0.940862    1.466785    0.000000
 ---------------------------------------------------------------------
 Rotational constants (GHZ):         556.2733929           8.4660446           8.3391296
 Standard basis: SVP (5D, 7F)
 There are    29 symmetry adapted cartesian basis functions of A'  symmetry.
 There are    10 symmetry adapted cartesian basis functions of A"  symmetry.
 There are    27 symmetry adapted basis functions of A'  symmetry.
 There are    10 symmetry adapted basis functions of A"  symmetry.
    37 basis functions,    69 primitive gaussians,    39 cartesian basis functions
    13 alpha electrons       13 beta electrons
       nuclear repulsion energy        39.4744637150 Hartrees.
 NAtoms=    3 NActive=    3 NUniq=    3 SFac= 1.00D+00 NAtFMM=   60 NAOKFM=F Big=F
 Integral buffers will be    131072 words long.
 Raffenetti 2 integral format.
 Two-electron integral symmetry is turned on.
 Nuclear repulsion after empirical dispersion term =       39.4727997953 Hartrees.
 One-electron integrals computed using PRISM.
 NBasis=    37 RedAO= T EigKep=  5.30D-02  NBF=    27    10
 NBsUse=    37 1.00D-06 EigRej= -1.00D+00 NBFU=    27    10
 Initial guess from the checkpoint file:  "/tmp/Gau-5431.chk"
 B after Tr=     0.000000   -0.000000   -0.000000
         Rot=    0.999997   -0.000000    0.000000   -0.002345 Ang=  -0.27 deg.
 Initial guess orbital symmetries:
       Occupied  (A') (A') (A') (A') (A') (A") (A') (A') (A') (A')
                 (A") (A') (A")
       Virtual   (A') (A') (A') (A') (A') (A") (A') (A') (A") (A')
                 (A") (A') (A') (A") (A') (A') (A") (A') (A') (A")
                 (A') (A') (A") (A')
 ExpMin= 1.22D-01 ExpMax= 1.04D+04 ExpMxC= 1.57D+03 IAcc=2 IRadAn=         4 AccDes= 0.00D+00
 Harris functional with IExCor=  402 and IRadAn=       4 diagonalized for initial guess.
 HarFok:  IExCor=  402 AccDes= 0.00D+00 IRadAn=         4 IDoV= 1 UseB2=F ITyADJ=14
 ICtDFT=  3500011 ScaDFX=  1.000000  1.000000  1.000000  1.000000
 FoFCou: FMM=F IPFlag=           0 FMFlag=      100000 FMFlg1=           0
         NFxFlg=           0 DoJE=T BraDBF=F KetDBF=T FulRan=T
         wScrn=  0.000000 ICntrl=       500 IOpCl=  0 I1Cent=   200000004 NGrid=           0
         NMat0=    1 NMatS0=      1 NMatT0=    0 NMatD0=    1 NMtDS0=    0 NMtDT0=    0
 Petite list used in FoFCou.
 Keep R1 ints in memory in symmetry-blocked form, NReq=7153137.
 Requested convergence on RMS density matrix=1.00D-08 within 128 cycles.
 Requested convergence on MAX density matrix=1.00D-06.
 Requested convergence on             energy=1.00D-06.
 No special actions if energy rises.
 Integral accuracy reduced to 1.0D-05 until final iterations.
 Initial convergence to 1.0D-05 achieved.  Increase integral accuracy.
 SCF Done:  E(RB3LYP) =  -535.705862499     A.U. after   14 cycles
            NFock= 14  Conv=0.58D-08     -V/T= 2.0032
 Calling FoFJK, ICntrl=      2127 FMM=F ISym2X=1 I1Cent= 0 IOpClX= 0 NMat=1 NMatS=1 NMatT=0.
 ***** Axes restored to original set *****
 -------------------------------------------------------------------
 Center     Atomic                   Forces (Hartrees/Bohr)
 Number     Number              X              Y              Z
 -------------------------------------------------------------------
      1        8          -0.003643238    0.065869801   -0.012555652
      2       17           0.004218673   -0.064265083    0.012037696
      3        1          -0.000575435   -0.001604718    0.000517956
 -------------------------------------------------------------------
 Cartesian Forces:  Max     0.065869801 RMS     0.031279434

 GradGradGradGradGradGradGradGradGradGradGradGradGradGradGradGradGradGrad
 Berny optimization.
 FormGI is forming the generalized inverse of G from B-inverse, IUseBI=4.
 Internal  Forces:  Max     0.065515608 RMS     0.037868744
 Search for a saddle point.
 Step number   2 out of a maximum of  100
 All quantities printed in internal units (Hartrees-Bohrs-Radians)
 Swapping is turned off.
 Update second derivatives using D2CorX and points    1    2
 The second derivative matrix:
                          R1        R2        A1
           R1          -0.00122
           R2          -0.00702   0.55230
           A1           0.01125   0.00089   0.10332
 ITU=  0  0
     Eigenvalues ---   -0.00251   0.10452   0.55239
 Eigenvectors required to have negative eigenvalues:
                          R1        A1        R2
   1                   -0.99430   0.10583  -0.01274
 RFO step:  Lambda0=6.421504237D-02 Lambda=-1.48161965D-04.
 Linear search not attempted -- option 19 set.
 Maximum step size (   0.300) exceeded in Quadratic search.
    -- Step size scaled by   0.306
 Iteration  1 RMS(Cart)=  0.08213344 RMS(Int)=  0.05595898
 Iteration  2 RMS(Cart)=  0.04474345 RMS(Int)=  0.00005197
 Iteration  3 RMS(Cart)=  0.00007165 RMS(Int)=  0.00000000
 Iteration  4 RMS(Cart)=  0.00000000 RMS(Int)=  0.00000000
 ClnCor:  largest displacement from symmetrization is 5.69D-15 for atom     3.
 Variable       Old X    -DE/DX   Delta X   Delta X   Delta X     New X
                                 (Linear)    (Quad)   (Total)
    R1        4.31848  -0.06552   0.00000   0.29687   0.29687   4.61535
    R2        1.84987   0.00065   0.00000   0.00464   0.00464   1.85452
    A1        1.54167   0.00307   0.00000  -0.04300  -0.04300   1.49867
         Item               Value     Threshold  Converged?
 Maximum Force            0.065516     0.000450     NO 
 RMS     Force            0.037869     0.000300     NO 
 Maximum Displacement     0.164656     0.001800     NO 
 RMS     Displacement     0.124831     0.001200     NO 
 Predicted change in Energy= 1.947227D-02
 GradGradGradGradGradGradGradGradGradGradGradGradGradGradGradGradGradGrad

                          Input orientation:                          
 ---------------------------------------------------------------------
 Center     Atomic      Atomic             Coordinates (Angstroms)
 Number     Number       Type             X           Y           Z
 ---------------------------------------------------------------------
      1          8           0        4.835836   -4.794289    2.338279
      2         17           0        4.716211   -2.398786    1.877556
      3          1           0        3.899365   -4.714628    2.620702
 ---------------------------------------------------------------------
                    Distance matrix (angstroms):
                    1          2          3
     1  O    0.000000
     2  Cl   2.442337   0.000000
     3  H    0.981369   2.565663   0.000000
 Stoichiometry    ClHO
 Framework group  CS[SG(ClHO)]
 Deg. of freedom     3
 Full point group                 CS      NOp   2
 Largest Abelian subgroup         CS      NOp   2
 Largest concise Abelian subgroup C1      NOp   1
                         Standard orientation:                         
 ---------------------------------------------------------------------
 Center     Atomic      Atomic             Coordinates (Angstroms)
 Number     Number       Type             X           Y           Z
 ---------------------------------------------------------------------
      1          8           0        0.037647    1.599633    0.000000
      2         17           0        0.037647   -0.842704   -0.000000
      3          1           0       -0.941171    1.528908    0.000000
 ---------------------------------------------------------------------
 Rotational constants (GHZ):         554.7956688           7.4268413           7.3287343
 Standard basis: SVP (5D, 7F)
 There are    29 symmetry adapted cartesian basis functions of A'  symmetry.
 There are    10 symmetry adapted cartesian basis functions of A"  symmetry.
 There are    27 symmetry adapted basis functions of A'  symmetry.
 There are    10 symmetry adapted basis functions of A"  symmetry.
    37 basis functions,    69 primitive gaussians,    39 cartesian basis functions
    13 alpha electrons       13 beta electrons
       nuclear repulsion energy        37.2869923633 Hartrees.
 NAtoms=    3 NActive=    3 NUniq=    3 SFac= 1.00D+00 NAtFMM=   60 NAOKFM=F Big=F
 Integral buffers will be    131072 words long.
 Raffenetti 2 integral format.
 Two-electron integral symmetry is turned on.
 Nuclear repulsion after empirical dispersion term =       37.2853550479 Hartrees.
 One-electron integrals computed using PRISM.
 NBasis=    37 RedAO= T EigKep=  5.45D-02  NBF=    27    10
 NBsUse=    37 1.00D-06 EigRej= -1.00D+00 NBFU=    27    10
 Initial guess from the checkpoint file:  "/tmp/Gau-5431.chk"
 B after Tr=     0.000000    0.000000   -0.000000
         Rot=    1.000000    0.000000   -0.000000    0.000897 Ang=   0.10 deg.
 Initial guess orbital symmetries:
       Occupied  (A') (A') (A') (A') (A') (A") (A') (A') (A') (A')
                 (A") (A') (A")
       Virtual   (A') (A') (A') (A') (A') (A") (A') (A') (A") (A')
                 (A") (A') (A') (A") (A') (A') (A") (A') (A') (A")
                 (A') (A') (A") (A')
 ExpMin= 1.22D-01 ExpMax= 1.04D+04 ExpMxC= 1.57D+03 IAcc=2 IRadAn=         4 AccDes= 0.00D+00
 Harris functional with IExCor=  402 and IRadAn=       4 diagonalized for initial guess.
 HarFok:  IExCor=  402 AccDes= 0.00D+00 IRadAn=         4 IDoV= 1 UseB2=F ITyADJ=14
 ICtDFT=  3500011 ScaDFX=  1.000000  1.000000  1.000000  1.000000
 FoFCou: FMM=F IPFlag=           0 FMFlag=      100000 FMFlg1=           0
         NFxFlg=           0 DoJE=T BraDBF=F KetDBF=T FulRan=T
         wScrn=  0.000000 ICntrl=       500 IOpCl=  0 I1Cent=   200000004 NGrid=           0
         NMat0=    1 NMatS0=      1 NMatT0=    0 NMatD0=    1 NMtDS0=    0 NMtDT0=    0
 Petite list used in FoFCou.
 Keep R1 ints in memory in symmetry-blocked form, NReq=7153137.
 Requested convergence on RMS density matrix=1.00D-08 within 128 cycles.
 Requested convergence on MAX density matrix=1.00D-06.
 Requested convergence on             energy=1.00D-06.
 No special actions if energy rises.
 Integral accuracy reduced to 1.0D-05 until final iterations.
 Initial convergence to 1.0D-05 achieved.  Increase integral accuracy.
 SCF Done:  E(RB3LYP) =  -535.686737560     A.U. after   12 cycles
            NFock= 12  Conv=0.83D-08     -V/T= 2.0032
 Calling FoFJK, ICntrl=      2127 FMM=F ISym2X=1 I1Cent= 0 IOpClX= 0 NMat=1 NMatS=1 NMatT=0.
 ***** Axes restored to original set *****
 -------------------------------------------------------------------
 Center     Atomic                   Forces (Hartrees/Bohr)
 Number     Number              X              Y              Z
 -------------------------------------------------------------------
      1        8          -0.004332843    0.062183871   -0.011567780
      2       17           0.003565552   -0.060751707    0.011514494
      3        1           0.000767291   -0.001432164    0.000053286
 -------------------------------------------------------------------
 Cartesian Forces:  Max     0.062183871 RMS     0.029548698

 GradGradGradGradGradGradGradGradGradGradGradGradGradGradGradGradGradGrad
 Berny optimization.
 FormGI is forming the generalized inverse of G from B-inverse, IUseBI=4.
 Internal  Forces:  Max     0.061933953 RMS     0.035791991
 Search for a saddle point.
 Step number   3 out of a maximum of  100
 All quantities printed in internal units (Hartrees-Bohrs-Radians)
 Swapping is turned off.
 Update second derivatives using D2CorX and points    1    2    3
 The second derivative matrix:
                          R1        R2        A1
           R1          -0.00966
           R2          -0.00375   0.55135
           A1           0.01620  -0.00083   0.10060
 ITU=  0  0  0
     Eigenvalues ---   -0.01201   0.10293   0.55138
 Eigenvectors required to have negative eigenvalues:
                          R1        A1        R2
   1                   -0.98979   0.14236  -0.00638
 RFO step:  Lambda0=5.596046091D-02 Lambda=-3.79337680D-04.
 Linear search not attempted -- option 19 set.
 Maximum step size (   0.300) exceeded in Quadratic search.
    -- Step size scaled by   0.330
 Iteration  1 RMS(Cart)=  0.08201123 RMS(Int)=  0.05400625
 Iteration  2 RMS(Cart)=  0.04323527 RMS(Int)=  0.00004567
 Iteration  3 RMS(Cart)=  0.00006403 RMS(Int)=  0.00000000
 Iteration  4 RMS(Cart)=  0.00000000 RMS(Int)=  0.00000000
 ClnCor:  largest displacement from symmetrization is 4.35D-15 for atom     1.
 Variable       Old X    -DE/DX   Delta X   Delta X   Delta X     New X
                                 (Linear)    (Quad)   (Total)
    R1        4.61535  -0.06193   0.00000   0.29344   0.29344   4.90878
    R2        1.85452  -0.00083   0.00000   0.00160   0.00160   1.85612
    A1        1.49867   0.00259   0.00000  -0.06239  -0.06239   1.43627
         Item               Value     Threshold  Converged?
 Maximum Force            0.061934     0.000450     NO 
 RMS     Force            0.035792     0.000300     NO 
 Maximum Displacement     0.152249     0.001800     NO 
 RMS     Displacement     0.120569     0.001200     NO 
 Predicted change in Energy= 1.781875D-02
 GradGradGradGradGradGradGradGradGradGradGradGradGradGradGradGradGradGrad

                          Input orientation:                          
 ---------------------------------------------------------------------
 Center     Atomic      Atomic             Coordinates (Angstroms)
 Number     Number       Type             X           Y           Z
 ---------------------------------------------------------------------
      1          8           0        4.835006   -4.865929    2.353465
      2         17           0        4.715396   -2.318220    1.861036
      3          1           0        3.901010   -4.723556    2.622036
 ---------------------------------------------------------------------
                    Distance matrix (angstroms):
                    1          2          3
     1  O    0.000000
     2  Cl   2.597617   0.000000
     3  H    0.982216   2.651035   0.000000
 Stoichiometry    ClHO
 Framework group  CS[SG(ClHO)]
 Deg. of freedom     3
 Full point group                 CS      NOp   2
 Largest Abelian subgroup         CS      NOp   2
 Largest concise Abelian subgroup C1      NOp   1
                         Standard orientation:                         
 ---------------------------------------------------------------------
 Center     Atomic      Atomic             Coordinates (Angstroms)
 Number     Number       Type             X           Y           Z
 ---------------------------------------------------------------------
      1          8           0        0.037436    1.703509    0.000000
      2         17           0        0.037436   -0.894109   -0.000000
      3          1           0       -0.935906    1.571777    0.000000
 ---------------------------------------------------------------------
 Rotational constants (GHZ):         559.6342928           6.5821283           6.5056126
 Standard basis: SVP (5D, 7F)
 There are    29 symmetry adapted cartesian basis functions of A'  symmetry.
 There are    10 symmetry adapted cartesian basis functions of A"  symmetry.
 There are    27 symmetry adapted basis functions of A'  symmetry.
 There are    10 symmetry adapted basis functions of A"  symmetry.
    37 basis functions,    69 primitive gaussians,    39 cartesian basis functions
    13 alpha electrons       13 beta electrons
       nuclear repulsion energy        35.4088950074 Hartrees.
 NAtoms=    3 NActive=    3 NUniq=    3 SFac= 1.00D+00 NAtFMM=   60 NAOKFM=F Big=F
 Integral buffers will be    131072 words long.
 Raffenetti 2 integral format.
 Two-electron integral symmetry is turned on.
 Nuclear repulsion after empirical dispersion term =       35.4073057443 Hartrees.
 One-electron integrals computed using PRISM.
 NBasis=    37 RedAO= T EigKep=  5.53D-02  NBF=    27    10
 NBsUse=    37 1.00D-06 EigRej= -1.00D+00 NBFU=    27    10
 Initial guess from the checkpoint file:  "/tmp/Gau-5431.chk"
 B after Tr=    -0.000000    0.000000    0.000000
         Rot=    1.000000   -0.000000    0.000000    0.000664 Ang=   0.08 deg.
 Initial guess orbital symmetries:
       Occupied  (A') (A') (A') (A') (A') (A") (A') (A') (A') (A')
                 (A") (A') (A")
       Virtual   (A') (A') (A') (A') (A') (A") (A') (A') (A") (A')
                 (A") (A') (A') (A") (A') (A') (A") (A') (A') (A")
                 (A') (A') (A") (A')
 ExpMin= 1.22D-01 ExpMax= 1.04D+04 ExpMxC= 1.57D+03 IAcc=2 IRadAn=         4 AccDes= 0.00D+00
 Harris functional with IExCor=  402 and IRadAn=       4 diagonalized for initial guess.
 HarFok:  IExCor=  402 AccDes= 0.00D+00 IRadAn=         4 IDoV= 1 UseB2=F ITyADJ=14
 ICtDFT=  3500011 ScaDFX=  1.000000  1.000000  1.000000  1.000000
 FoFCou: FMM=F IPFlag=           0 FMFlag=      100000 FMFlg1=           0
         NFxFlg=           0 DoJE=T BraDBF=F KetDBF=T FulRan=T
         wScrn=  0.000000 ICntrl=       500 IOpCl=  0 I1Cent=   200000004 NGrid=           0
         NMat0=    1 NMatS0=      1 NMatT0=    0 NMatD0=    1 NMtDS0=    0 NMtDT0=    0
 Petite list used in FoFCou.
 Keep R1 ints in memory in symmetry-blocked form, NReq=7153137.
 Requested convergence on RMS density matrix=1.00D-08 within 128 cycles.
 Requested convergence on MAX density matrix=1.00D-06.
 Requested convergence on             energy=1.00D-06.
 No special actions if energy rises.
 Integral accuracy reduced to 1.0D-05 until final iterations.
 Initial convergence to 1.0D-05 achieved.  Increase integral accuracy.
 SCF Done:  E(RB3LYP) =  -535.669235458     A.U. after   14 cycles
            NFock= 14  Conv=0.26D-08     -V/T= 2.0031
 Calling FoFJK, ICntrl=      2127 FMM=F ISym2X=1 I1Cent= 0 IOpClX= 0 NMat=1 NMatS=1 NMatT=0.
 ***** Axes restored to original set *****
 -------------------------------------------------------------------
 Center     Atomic                   Forces (Hartrees/Bohr)
 Number     Number              X              Y              Z
 -------------------------------------------------------------------
      1        8          -0.004120089    0.056773226   -0.010508818
      2       17           0.003290768   -0.054674356    0.010336480
      3        1           0.000829321   -0.002098871    0.000172338
 -------------------------------------------------------------------
 Cartesian Forces:  Max     0.056773226 RMS     0.026796952

 GradGradGradGradGradGradGradGradGradGradGradGradGradGradGradGradGradGrad
 Berny optimization.
 FormGI is forming the generalized inverse of G from B-inverse, IUseBI=4.
 Internal  Forces:  Max     0.055734761 RMS     0.032255969
 Search for a saddle point.
 Step number   4 out of a maximum of  100
 All quantities printed in internal units (Hartrees-Bohrs-Radians)
 Swapping is turned off.
 Update second derivatives using D2CorX and points    2    3    4
 The second derivative matrix:
                          R1        R2        A1
           R1          -0.01740
           R2          -0.00249   0.55115
           A1           0.01747  -0.00103   0.10040
 ITU=  0  0  0  0
     Eigenvalues ---   -0.01994   0.10293   0.55117
 Eigenvectors required to have negative eigenvalues:
                          R1        A1        R2
   1                   -0.98962   0.14363  -0.00406
 RFO step:  Lambda0=4.660955783D-02 Lambda=-1.82204539D-04.
 Linear search not attempted -- option 19 set.
 Maximum step size (   0.300) exceeded in Quadratic search.
    -- Step size scaled by   0.358
 Iteration  1 RMS(Cart)=  0.08193119 RMS(Int)=  0.05453436
 Iteration  2 RMS(Cart)=  0.04382676 RMS(Int)=  0.00003948
 Iteration  3 RMS(Cart)=  0.00005642 RMS(Int)=  0.00000000
 Iteration  4 RMS(Cart)=  0.00000000 RMS(Int)=  0.00000000
 ClnCor:  largest displacement from symmetrization is 3.97D-15 for atom     1.
 Variable       Old X    -DE/DX   Delta X   Delta X   Delta X     New X
                                 (Linear)    (Quad)   (Total)
    R1        4.90878  -0.05573   0.00000   0.29436   0.29436   5.20315
    R2        1.85612  -0.00105   0.00000   0.00065   0.00065   1.85677
    A1        1.43627   0.00373   0.00000  -0.05788  -0.05788   1.37839
         Item               Value     Threshold  Converged?
 Maximum Force            0.055735     0.000450     NO 
 RMS     Force            0.032256     0.000300     NO 
 Maximum Displacement     0.155266     0.001800     NO 
 RMS     Displacement     0.121560     0.001200     NO 
 Predicted change in Energy= 1.573902D-02
 GradGradGradGradGradGradGradGradGradGradGradGradGradGradGradGradGradGrad

                          Input orientation:                          
 ---------------------------------------------------------------------
 Center     Atomic      Atomic             Coordinates (Angstroms)
 Number     Number       Type             X           Y           Z
 ---------------------------------------------------------------------
      1          8           0        4.831743   -4.936372    2.369178
      2         17           0        4.715461   -2.236056    1.843903
      3          1           0        3.904207   -4.735276    2.623457
 ---------------------------------------------------------------------
                    Distance matrix (angstroms):
                    1          2          3
     1  O    0.000000
     2  Cl   2.753387   0.000000
     3  H    0.982558   2.740791   0.000000
 Stoichiometry    ClHO
 Framework group  CS[SG(ClHO)]
 Deg. of freedom     3
 Full point group                 CS      NOp   2
 Largest Abelian subgroup         CS      NOp   2
 Largest concise Abelian subgroup C1      NOp   1
                         Standard orientation:                         
 ---------------------------------------------------------------------
 Center     Atomic      Atomic             Coordinates (Angstroms)
 Number     Number       Type             X           Y           Z
 ---------------------------------------------------------------------
      1          8           0        0.037093    1.807518   -0.000000
      2         17           0        0.037093   -0.945869    0.000000
      3          1           0       -0.927335    1.619635   -0.000000
 ---------------------------------------------------------------------
 Rotational constants (GHZ):         568.8973327           5.8700796           5.8101287
 Standard basis: SVP (5D, 7F)
 There are    29 symmetry adapted cartesian basis functions of A'  symmetry.
 There are    10 symmetry adapted cartesian basis functions of A"  symmetry.
 There are    27 symmetry adapted basis functions of A'  symmetry.
 There are    10 symmetry adapted basis functions of A"  symmetry.
    37 basis functions,    69 primitive gaussians,    39 cartesian basis functions
    13 alpha electrons       13 beta electrons
       nuclear repulsion energy        33.7288593652 Hartrees.
 NAtoms=    3 NActive=    3 NUniq=    3 SFac= 1.00D+00 NAtFMM=   60 NAOKFM=F Big=F
 Integral buffers will be    131072 words long.
 Raffenetti 2 integral format.
 Two-electron integral symmetry is turned on.
 Nuclear repulsion after empirical dispersion term =       33.7273348857 Hartrees.
 One-electron integrals computed using PRISM.
 NBasis=    37 RedAO= T EigKep=  5.55D-02  NBF=    27    10
 NBsUse=    37 1.00D-06 EigRej= -1.00D+00 NBFU=    27    10
 Initial guess from the checkpoint file:  "/tmp/Gau-5431.chk"
 B after Tr=    -0.000000   -0.000000    0.000000
         Rot=    1.000000   -0.000000    0.000000    0.000714 Ang=   0.08 deg.
 Initial guess orbital symmetries:
       Occupied  (A') (A') (A') (A') (A') (A") (A') (A') (A') (A')
                 (A") (A') (A")
       Virtual   (A') (A') (A') (A') (A') (A") (A') (A") (A') (A')
                 (A") (A') (A') (A") (A') (A') (A") (A') (A') (A")
                 (A') (A') (A") (A')
 ExpMin= 1.22D-01 ExpMax= 1.04D+04 ExpMxC= 1.57D+03 IAcc=2 IRadAn=         4 AccDes= 0.00D+00
 Harris functional with IExCor=  402 and IRadAn=       4 diagonalized for initial guess.
 HarFok:  IExCor=  402 AccDes= 0.00D+00 IRadAn=         4 IDoV= 1 UseB2=F ITyADJ=14
 ICtDFT=  3500011 ScaDFX=  1.000000  1.000000  1.000000  1.000000
 FoFCou: FMM=F IPFlag=           0 FMFlag=      100000 FMFlg1=           0
         NFxFlg=           0 DoJE=T BraDBF=F KetDBF=T FulRan=T
         wScrn=  0.000000 ICntrl=       500 IOpCl=  0 I1Cent=   200000004 NGrid=           0
         NMat0=    1 NMatS0=      1 NMatT0=    0 NMatD0=    1 NMtDS0=    0 NMtDT0=    0
 Petite list used in FoFCou.
 Keep R1 ints in memory in symmetry-blocked form, NReq=7153137.
 Requested convergence on RMS density matrix=1.00D-08 within 128 cycles.
 Requested convergence on MAX density matrix=1.00D-06.
 Requested convergence on             energy=1.00D-06.
 No special actions if energy rises.
 Integral accuracy reduced to 1.0D-05 until final iterations.
 Initial convergence to 1.0D-05 achieved.  Increase integral accuracy.
 SCF Done:  E(RB3LYP) =  -535.653632830     A.U. after   15 cycles
            NFock= 15  Conv=0.17D-08     -V/T= 2.0031
 Calling FoFJK, ICntrl=      2127 FMM=F ISym2X=1 I1Cent= 0 IOpClX= 0 NMat=1 NMatS=1 NMatT=0.
 ***** Axes restored to original set *****
 -------------------------------------------------------------------
 Center     Atomic                   Forces (Hartrees/Bohr)
 Number     Number              X              Y              Z
 -------------------------------------------------------------------
      1        8          -0.003394453    0.050101430   -0.009350955
      2       17           0.002842283   -0.047700873    0.009027290
      3        1           0.000552170   -0.002400557    0.000323665
 -------------------------------------------------------------------
 Cartesian Forces:  Max     0.050101430 RMS     0.023523587

 GradGradGradGradGradGradGradGradGradGradGradGradGradGradGradGradGradGrad
 Berny optimization.
 FormGI is forming the generalized inverse of G from B-inverse, IUseBI=4.
 Internal  Forces:  Max     0.048622833 RMS     0.028186118
 Search for a saddle point.
 Step number   5 out of a maximum of  100
 All quantities printed in internal units (Hartrees-Bohrs-Radians)
 Swapping is turned off.
 Update second derivatives using D2CorX and points    3    4    5
 The second derivative matrix:
                          R1        R2        A1
           R1          -0.02065
           R2          -0.00182   0.55102
           A1           0.01785  -0.00111   0.10035
 ITU=  0  0  0  0
     Eigenvalues ---   -0.02323   0.10293   0.55103
 Eigenvectors required to have negative eigenvalues:
                          R1        A1        R2
   1                   -0.98973   0.14294  -0.00286
 RFO step:  Lambda0=3.848793649D-02 Lambda=-7.27123888D-05.
 Linear search not attempted -- option 19 set.
 Maximum step size (   0.300) exceeded in Quadratic search.
    -- Step size scaled by   0.380
 Iteration  1 RMS(Cart)=  0.08200187 RMS(Int)=  0.05508019
 Iteration  2 RMS(Cart)=  0.04439945 RMS(Int)=  0.00003398
 Iteration  3 RMS(Cart)=  0.00004929 RMS(Int)=  0.00000000
 Iteration  4 RMS(Cart)=  0.00000000 RMS(Int)=  0.00000000
 ClnCor:  largest displacement from symmetrization is 1.99D-15 for atom     3.
 Variable       Old X    -DE/DX   Delta X   Delta X   Delta X     New X
                                 (Linear)    (Quad)   (Total)
    R1        5.20315  -0.04862   0.00000   0.29532   0.29532   5.49847
    R2        1.85677  -0.00093   0.00000   0.00029   0.00029   1.85705
    A1        1.37839   0.00428   0.00000  -0.05276  -0.05276   1.32563
         Item               Value     Threshold  Converged?
 Maximum Force            0.048623     0.000450     NO 
 RMS     Force            0.028186     0.000300     NO 
 Maximum Displacement     0.158860     0.001800     NO 
 RMS     Displacement     0.122819     0.001200     NO 
 Predicted change in Energy= 1.354667D-02
 GradGradGradGradGradGradGradGradGradGradGradGradGradGradGradGradGradGrad

                          Input orientation:                          
 ---------------------------------------------------------------------
 Center     Atomic      Atomic             Coordinates (Angstroms)
 Number     Number       Type             X           Y           Z
 ---------------------------------------------------------------------
      1          8           0        4.826524   -5.005306    2.385201
      2         17           0        4.716569   -2.151991    1.826040
      3          1           0        3.908318   -4.750407    2.625295
 ---------------------------------------------------------------------
                    Distance matrix (angstroms):
                    1          2          3
     1  O    0.000000
     2  Cl   2.909666   0.000000
     3  H    0.982711   2.836166   0.000000
 Stoichiometry    ClHO
 Framework group  CS[SG(ClHO)]
 Deg. of freedom     3
 Full point group                 CS      NOp   2
 Largest Abelian subgroup         CS      NOp   2
 Largest concise Abelian subgroup C1      NOp   1
                         Standard orientation:                         
 ---------------------------------------------------------------------
 Center     Atomic      Atomic             Coordinates (Angstroms)
 Number     Number       Type             X           Y           Z
 ---------------------------------------------------------------------
      1          8           0        0.036666    1.911648   -0.000000
      2         17           0        0.036666   -0.998018   -0.000000
      3          1           0       -0.916658    1.673126    0.000000
 ---------------------------------------------------------------------
 Rotational constants (GHZ):         581.3412034           5.2644487           5.2172033
 Standard basis: SVP (5D, 7F)
 There are    29 symmetry adapted cartesian basis functions of A'  symmetry.
 There are    10 symmetry adapted cartesian basis functions of A"  symmetry.
 There are    27 symmetry adapted basis functions of A'  symmetry.
 There are    10 symmetry adapted basis functions of A"  symmetry.
    37 basis functions,    69 primitive gaussians,    39 cartesian basis functions
    13 alpha electrons       13 beta electrons
       nuclear repulsion energy        32.2139377272 Hartrees.
 NAtoms=    3 NActive=    3 NUniq=    3 SFac= 1.00D+00 NAtFMM=   60 NAOKFM=F Big=F
 Integral buffers will be    131072 words long.
 Raffenetti 2 integral format.
 Two-electron integral symmetry is turned on.
 Nuclear repulsion after empirical dispersion term =       32.2124941160 Hartrees.
 One-electron integrals computed using PRISM.
 NBasis=    37 RedAO= T EigKep=  5.55D-02  NBF=    27    10
 NBsUse=    37 1.00D-06 EigRej= -1.00D+00 NBFU=    27    10
 Initial guess from the checkpoint file:  "/tmp/Gau-5431.chk"
 B after Tr=     0.000000   -0.000000   -0.000000
         Rot=    1.000000   -0.000000    0.000000    0.000736 Ang=   0.08 deg.
 Initial guess orbital symmetries:
       Occupied  (A') (A') (A') (A') (A') (A") (A') (A') (A') (A')
                 (A") (A') (A")
       Virtual   (A') (A') (A') (A') (A') (A") (A') (A") (A') (A')
                 (A") (A') (A') (A") (A') (A') (A') (A") (A') (A")
                 (A') (A') (A") (A')
 ExpMin= 1.22D-01 ExpMax= 1.04D+04 ExpMxC= 1.57D+03 IAcc=2 IRadAn=         4 AccDes= 0.00D+00
 Harris functional with IExCor=  402 and IRadAn=       4 diagonalized for initial guess.
 HarFok:  IExCor=  402 AccDes= 0.00D+00 IRadAn=         4 IDoV= 1 UseB2=F ITyADJ=14
 ICtDFT=  3500011 ScaDFX=  1.000000  1.000000  1.000000  1.000000
 FoFCou: FMM=F IPFlag=           0 FMFlag=      100000 FMFlg1=           0
         NFxFlg=           0 DoJE=T BraDBF=F KetDBF=T FulRan=T
         wScrn=  0.000000 ICntrl=       500 IOpCl=  0 I1Cent=   200000004 NGrid=           0
         NMat0=    1 NMatS0=      1 NMatT0=    0 NMatD0=    1 NMtDS0=    0 NMtDT0=    0
 Petite list used in FoFCou.
 Keep R1 ints in memory in symmetry-blocked form, NReq=7153137.
 Requested convergence on RMS density matrix=1.00D-08 within 128 cycles.
 Requested convergence on MAX density matrix=1.00D-06.
 Requested convergence on             energy=1.00D-06.
 No special actions if energy rises.
 Integral accuracy reduced to 1.0D-05 until final iterations.
 Initial convergence to 1.0D-05 achieved.  Increase integral accuracy.
 SCF Done:  E(RB3LYP) =  -535.640100799     A.U. after   17 cycles
            NFock= 17  Conv=0.26D-08     -V/T= 2.0030
 Calling FoFJK, ICntrl=      2127 FMM=F ISym2X=1 I1Cent= 0 IOpClX= 0 NMat=1 NMatS=1 NMatT=0.
 ***** Axes restored to original set *****
 -------------------------------------------------------------------
 Center     Atomic                   Forces (Hartrees/Bohr)
 Number     Number              X              Y              Z
 -------------------------------------------------------------------
      1        8          -0.002569071    0.043163515   -0.008169515
      2       17           0.002338388   -0.040728236    0.007735967
      3        1           0.000230683   -0.002435280    0.000433547
 -------------------------------------------------------------------
 Cartesian Forces:  Max     0.043163515 RMS     0.020184439

 GradGradGradGradGradGradGradGradGradGradGradGradGradGradGradGradGradGrad
 Berny optimization.
 FormGI is forming the generalized inverse of G from B-inverse, IUseBI=4.
 Internal  Forces:  Max     0.041513504 RMS     0.024106257
 Search for a saddle point.
 Step number   6 out of a maximum of  100
 All quantities printed in internal units (Hartrees-Bohrs-Radians)
 Swapping is turned off.
 Second derivative matrix not updated -- analytic derivatives used.
 The second derivative matrix:
                          R1        R2        A1
           R1          -0.02065
           R2          -0.00182   0.55102
           A1           0.01785  -0.00111   0.10035
 ITU=  0  0  0  0
     Eigenvalues ---   -0.02323   0.10293   0.55103
 Eigenvectors required to have negative eigenvalues:
                          R1        A1        R2
   1                   -0.98973   0.14294  -0.00286
 RFO step:  Lambda0=3.169074531D-02 Lambda=-2.48072236D-05.
 Linear search not attempted -- option 19 set.
 Maximum step size (   0.300) exceeded in Quadratic search.
    -- Step size scaled by   0.395
 Iteration  1 RMS(Cart)=  0.08223519 RMS(Int)=  0.05546226
 Iteration  2 RMS(Cart)=  0.04480938 RMS(Int)=  0.00002926
 Iteration  3 RMS(Cart)=  0.00004295 RMS(Int)=  0.00000000
 Iteration  4 RMS(Cart)=  0.00000000 RMS(Int)=  0.00000000
 ClnCor:  largest displacement from symmetrization is 1.99D-15 for atom     3.
 Variable       Old X    -DE/DX   Delta X   Delta X   Delta X     New X
                                 (Linear)    (Quad)   (Total)
    R1        5.49847  -0.04151   0.00000   0.29600   0.29600   5.79447
    R2        1.85705  -0.00074   0.00000   0.00040   0.00040   1.85745
    A1        1.32563   0.00441   0.00000  -0.04885  -0.04885   1.27678
         Item               Value     Threshold  Converged?
 Maximum Force            0.041514     0.000450     NO 
 RMS     Force            0.024106     0.000300     NO 
 Maximum Displacement     0.161737     0.001800     NO 
 RMS     Displacement     0.123924     0.001200     NO 
 Predicted change in Energy= 1.146036D-02
 GradGradGradGradGradGradGradGradGradGradGradGradGradGradGradGradGradGrad

                          Input orientation:                          
 ---------------------------------------------------------------------
 Center     Atomic      Atomic             Coordinates (Angstroms)
 Number     Number       Type             X           Y           Z
 ---------------------------------------------------------------------
      1          8           0        4.819852   -5.072947    2.401420
      2         17           0        4.718481   -2.066404    1.807604
      3          1           0        3.913079   -4.768354    2.627513
 ---------------------------------------------------------------------
                    Distance matrix (angstroms):
                    1          2          3
     1  O    0.000000
     2  Cl   3.066300   0.000000
     3  H    0.982920   2.936232   0.000000
 Stoichiometry    ClHO
 Framework group  CS[SG(ClHO)]
 Deg. of freedom     3
 Full point group                 CS      NOp   2
 Largest Abelian subgroup         CS      NOp   2
 Largest concise Abelian subgroup C1      NOp   1
                         Standard orientation:                         
 ---------------------------------------------------------------------
 Center     Atomic      Atomic             Coordinates (Angstroms)
 Number     Number       Type             X           Y           Z
 ---------------------------------------------------------------------
      1          8           0        0.036182    2.015844   -0.000000
      2         17           0        0.036182   -1.050456   -0.000000
      3          1           0       -0.904558    1.730994    0.000000
 ---------------------------------------------------------------------
 Rotational constants (GHZ):         596.2900578           4.7459737           4.7084980
 Standard basis: SVP (5D, 7F)
 There are    29 symmetry adapted cartesian basis functions of A'  symmetry.
 There are    10 symmetry adapted cartesian basis functions of A"  symmetry.
 There are    27 symmetry adapted basis functions of A'  symmetry.
 There are    10 symmetry adapted basis functions of A"  symmetry.
    37 basis functions,    69 primitive gaussians,    39 cartesian basis functions
    13 alpha electrons       13 beta electrons
       nuclear repulsion energy        30.8414416945 Hartrees.
 NAtoms=    3 NActive=    3 NUniq=    3 SFac= 1.00D+00 NAtFMM=   60 NAOKFM=F Big=F
 Integral buffers will be    131072 words long.
 Raffenetti 2 integral format.
 Two-electron integral symmetry is turned on.
 Nuclear repulsion after empirical dispersion term =       30.8400934467 Hartrees.
 One-electron integrals computed using PRISM.
 NBasis=    37 RedAO= T EigKep=  5.54D-02  NBF=    27    10
 NBsUse=    37 1.00D-06 EigRej= -1.00D+00 NBFU=    27    10
 Initial guess from the checkpoint file:  "/tmp/Gau-5431.chk"
 B after Tr=    -0.000000    0.000000    0.000000
         Rot=    1.000000   -0.000000    0.000000    0.000727 Ang=   0.08 deg.
 Initial guess orbital symmetries:
       Occupied  (A') (A') (A') (A') (A') (A") (A') (A') (A') (A')
                 (A") (A') (A")
       Virtual   (A') (A') (A') (A') (A') (A") (A') (A") (A') (A')
                 (A") (A') (A') (A") (A') (A') (A') (A") (A') (A")
                 (A') (A') (A") (A')
 ExpMin= 1.22D-01 ExpMax= 1.04D+04 ExpMxC= 1.57D+03 IAcc=2 IRadAn=         4 AccDes= 0.00D+00
 Harris functional with IExCor=  402 and IRadAn=       4 diagonalized for initial guess.
 HarFok:  IExCor=  402 AccDes= 0.00D+00 IRadAn=         4 IDoV= 1 UseB2=F ITyADJ=14
 ICtDFT=  3500011 ScaDFX=  1.000000  1.000000  1.000000  1.000000
 FoFCou: FMM=F IPFlag=           0 FMFlag=      100000 FMFlg1=           0
         NFxFlg=           0 DoJE=T BraDBF=F KetDBF=T FulRan=T
         wScrn=  0.000000 ICntrl=       500 IOpCl=  0 I1Cent=   200000004 NGrid=           0
         NMat0=    1 NMatS0=      1 NMatT0=    0 NMatD0=    1 NMtDS0=    0 NMtDT0=    0
 Petite list used in FoFCou.
 Keep R1 ints in memory in symmetry-blocked form, NReq=7153137.
 Requested convergence on RMS density matrix=1.00D-08 within 128 cycles.
 Requested convergence on MAX density matrix=1.00D-06.
 Requested convergence on             energy=1.00D-06.
 No special actions if energy rises.
 Integral accuracy reduced to 1.0D-05 until final iterations.
 Initial convergence to 1.0D-05 achieved.  Increase integral accuracy.
 SCF Done:  E(RB3LYP) =  -535.628589871     A.U. after   18 cycles
            NFock= 18  Conv=0.31D-08     -V/T= 2.0029
 Calling FoFJK, ICntrl=      2127 FMM=F ISym2X=1 I1Cent= 0 IOpClX= 0 NMat=1 NMatS=1 NMatT=0.
 ***** Axes restored to original set *****
 -------------------------------------------------------------------
 Center     Atomic                   Forces (Hartrees/Bohr)
 Number     Number              X              Y              Z
 -------------------------------------------------------------------
      1        8          -0.001942763    0.036639230   -0.007010658
      2       17           0.001865716   -0.034277420    0.006543357
      3        1           0.000077047   -0.002361809    0.000467301
 -------------------------------------------------------------------
 Cartesian Forces:  Max     0.036639230 RMS     0.017069782

 GradGradGradGradGradGradGradGradGradGradGradGradGradGradGradGradGradGrad
 Berny optimization.
 FormGI is forming the generalized inverse of G from B-inverse, IUseBI=4.
 Internal  Forces:  Max     0.034937399 RMS     0.020326302
 Search for a saddle point.
 Step number   7 out of a maximum of  100
 All quantities printed in internal units (Hartrees-Bohrs-Radians)
 Swapping is turned off.
 Update second derivatives using D2CorX and points    5    6    7
 The second derivative matrix:
                          R1        R2        A1
           R1          -0.01940
           R2          -0.00113   0.55127
           A1           0.01704  -0.00145   0.10078
 ITU=  0  0  0  0
     Eigenvalues ---   -0.02177   0.10314   0.55127
 Eigenvectors required to have negative eigenvalues:
                          R1        A1        R2
   1                   -0.99047   0.13770  -0.00161
 RFO step:  Lambda0=2.595417704D-02 Lambda=-3.87421733D-06.
 Linear search not attempted -- option 19 set.
 Maximum step size (   0.300) exceeded in Quadratic search.
    -- Step size scaled by   0.407
 Iteration  1 RMS(Cart)=  0.08269808 RMS(Int)=  0.05593173
 Iteration  2 RMS(Cart)=  0.04527307 RMS(Int)=  0.00002511
 Iteration  3 RMS(Cart)=  0.00003719 RMS(Int)=  0.00000000
 Iteration  4 RMS(Cart)=  0.00000000 RMS(Int)=  0.00000000
 ClnCor:  largest displacement from symmetrization is 3.66D-15 for atom     1.
 Variable       Old X    -DE/DX   Delta X   Delta X   Delta X     New X
                                 (Linear)    (Quad)   (Total)
    R1        5.79447  -0.03494   0.00000   0.29683   0.29683   6.09129
    R2        1.85745  -0.00070   0.00000   0.00000   0.00000   1.85745
    A1        1.27678   0.00429   0.00000  -0.04353  -0.04353   1.23325
         Item               Value     Threshold  Converged?
 Maximum Force            0.034937     0.000450     NO 
 RMS     Force            0.020326     0.000300     NO 
 Maximum Displacement     0.165551     0.001800     NO 
 RMS     Displacement     0.125474     0.001200     NO 
 Predicted change in Energy= 9.577404D-03
 GradGradGradGradGradGradGradGradGradGradGradGradGradGradGradGradGradGrad

                          Input orientation:                          
 ---------------------------------------------------------------------
 Center     Atomic      Atomic             Coordinates (Angstroms)
 Number     Number       Type             X           Y           Z
 ---------------------------------------------------------------------
      1          8           0        4.811962   -5.138857    2.417666
      2         17           0        4.721459   -1.978798    1.788407
      3          1           0        3.917991   -4.790049    2.630463
 ---------------------------------------------------------------------
                    Distance matrix (angstroms):
                    1          2          3
     1  O    0.000000
     2  Cl   3.223373   0.000000
     3  H    0.982922   3.042656   0.000000
 Stoichiometry    ClHO
 Framework group  CS[SG(ClHO)]
 Deg. of freedom     3
 Full point group                 CS      NOp   2
 Largest Abelian subgroup         CS      NOp   2
 Largest concise Abelian subgroup C1      NOp   1
                         Standard orientation:                         
 ---------------------------------------------------------------------
 Center     Atomic      Atomic             Coordinates (Angstroms)
 Number     Number       Type             X           Y           Z
 ---------------------------------------------------------------------
      1          8           0        0.035671    2.120110   -0.000000
      2         17           0        0.035671   -1.103263    0.000000
      3          1           0       -0.891785    1.794594   -0.000000
 ---------------------------------------------------------------------
 Rotational constants (GHZ):         612.9618961           4.2984390           4.2685058
 Standard basis: SVP (5D, 7F)
 There are    29 symmetry adapted cartesian basis functions of A'  symmetry.
 There are    10 symmetry adapted cartesian basis functions of A"  symmetry.
 There are    27 symmetry adapted basis functions of A'  symmetry.
 There are    10 symmetry adapted basis functions of A"  symmetry.
    37 basis functions,    69 primitive gaussians,    39 cartesian basis functions
    13 alpha electrons       13 beta electrons
       nuclear repulsion energy        29.5905597553 Hartrees.
 NAtoms=    3 NActive=    3 NUniq=    3 SFac= 1.00D+00 NAtFMM=   60 NAOKFM=F Big=F
 Integral buffers will be    131072 words long.
 Raffenetti 2 integral format.
 Two-electron integral symmetry is turned on.
 Nuclear repulsion after empirical dispersion term =       29.5893188713 Hartrees.
 One-electron integrals computed using PRISM.
 NBasis=    37 RedAO= T EigKep=  5.53D-02  NBF=    27    10
 NBsUse=    37 1.00D-06 EigRej= -1.00D+00 NBFU=    27    10
 Initial guess from the checkpoint file:  "/tmp/Gau-5431.chk"
 B after Tr=    -0.000000   -0.000000   -0.000000
         Rot=    1.000000    0.000000   -0.000000    0.000716 Ang=   0.08 deg.
 Initial guess orbital symmetries:
       Occupied  (A') (A') (A') (A') (A') (A") (A') (A') (A') (A')
                 (A") (A') (A")
       Virtual   (A') (A') (A') (A') (A') (A") (A') (A") (A') (A')
                 (A') (A") (A') (A") (A') (A') (A') (A") (A') (A")
                 (A') (A') (A") (A')
 ExpMin= 1.22D-01 ExpMax= 1.04D+04 ExpMxC= 1.57D+03 IAcc=2 IRadAn=         4 AccDes= 0.00D+00
 Harris functional with IExCor=  402 and IRadAn=       4 diagonalized for initial guess.
 HarFok:  IExCor=  402 AccDes= 0.00D+00 IRadAn=         4 IDoV= 1 UseB2=F ITyADJ=14
 ICtDFT=  3500011 ScaDFX=  1.000000  1.000000  1.000000  1.000000
 FoFCou: FMM=F IPFlag=           0 FMFlag=      100000 FMFlg1=           0
         NFxFlg=           0 DoJE=T BraDBF=F KetDBF=T FulRan=T
         wScrn=  0.000000 ICntrl=       500 IOpCl=  0 I1Cent=   200000004 NGrid=           0
         NMat0=    1 NMatS0=      1 NMatT0=    0 NMatD0=    1 NMtDS0=    0 NMtDT0=    0
 Petite list used in FoFCou.
 Keep R1 ints in memory in symmetry-blocked form, NReq=7153137.
 Requested convergence on RMS density matrix=1.00D-08 within 128 cycles.
 Requested convergence on MAX density matrix=1.00D-06.
 Requested convergence on             energy=1.00D-06.
 No special actions if energy rises.
 Integral accuracy reduced to 1.0D-05 until final iterations.
 Initial convergence to 1.0D-05 achieved.  Increase integral accuracy.
 SCF Done:  E(RB3LYP) =  -535.618923835     A.U. after   19 cycles
            NFock= 19  Conv=0.10D-08     -V/T= 2.0029
 Calling FoFJK, ICntrl=      2127 FMM=F ISym2X=1 I1Cent= 0 IOpClX= 0 NMat=1 NMatS=1 NMatT=0.
 ***** Axes restored to original set *****
 -------------------------------------------------------------------
 Center     Atomic                   Forces (Hartrees/Bohr)
 Number     Number              X              Y              Z
 -------------------------------------------------------------------
      1        8          -0.001326132    0.030689629   -0.005968404
      2       17           0.001433775   -0.028566666    0.005491876
      3        1          -0.000107643   -0.002122964    0.000476527
 -------------------------------------------------------------------
 Cartesian Forces:  Max     0.030689629 RMS     0.014268264

 GradGradGradGradGradGradGradGradGradGradGradGradGradGradGradGradGradGrad
 Berny optimization.
 FormGI is forming the generalized inverse of G from B-inverse, IUseBI=4.
 Internal  Forces:  Max     0.029117443 RMS     0.016965256
 Search for a saddle point.
 Step number   8 out of a maximum of  100
 All quantities printed in internal units (Hartrees-Bohrs-Radians)
 Swapping is turned off.
 Update second derivatives using D2CorX and points    6    7    8
 The second derivative matrix:
                          R1        R2        A1
           R1          -0.01725
           R2          -0.00073   0.55134
           A1           0.01609  -0.00161   0.10118
 ITU=  0  0  0  0
     Eigenvalues ---   -0.01939   0.10332   0.55134
 Eigenvectors required to have negative eigenvalues:
                          R1        A1        R2
   1                   -0.99122   0.13223  -0.00089
 RFO step:  Lambda0=2.124153375D-02 Lambda=-5.13311786D-07.
 Linear search not attempted -- option 19 set.
 Maximum step size (   0.300) exceeded in Quadratic search.
    -- Step size scaled by   0.415
 Iteration  1 RMS(Cart)=  0.08323510 RMS(Int)=  0.05624644
 Iteration  2 RMS(Cart)=  0.04559186 RMS(Int)=  0.00002163
 Iteration  3 RMS(Cart)=  0.00003226 RMS(Int)=  0.00000000
 Iteration  4 RMS(Cart)=  0.00000000 RMS(Int)=  0.00000000
 ClnCor:  largest displacement from symmetrization is 5.96D-15 for atom     3.
 Variable       Old X    -DE/DX   Delta X   Delta X   Delta X     New X
                                 (Linear)    (Quad)   (Total)
    R1        6.09129  -0.02912   0.00000   0.29738   0.29738   6.38867
    R2        1.85745  -0.00055   0.00000  -0.00013  -0.00013   1.85732
    A1        1.23325   0.00392   0.00000  -0.03955  -0.03955   1.19370
         Item               Value     Threshold  Converged?
 Maximum Force            0.029117     0.000450     NO 
 RMS     Force            0.016965     0.000300     NO 
 Maximum Displacement     0.168468     0.001800     NO 
 RMS     Displacement     0.126760     0.001200     NO 
 Predicted change in Energy= 7.941033D-03
 GradGradGradGradGradGradGradGradGradGradGradGradGradGradGradGradGradGrad

                          Input orientation:                          
 ---------------------------------------------------------------------
 Center     Atomic      Atomic             Coordinates (Angstroms)
 Number     Number       Type             X           Y           Z
 ---------------------------------------------------------------------
      1          8           0        4.803225   -5.203371    2.433892
      2         17           0        4.725232   -1.889648    1.768635
      3          1           0        3.922955   -4.814685    2.634009
 ---------------------------------------------------------------------
                    Distance matrix (angstroms):
                    1          2          3
     1  O    0.000000
     2  Cl   3.380740   0.000000
     3  H    0.982853   3.154102   0.000000
 Stoichiometry    ClHO
 Framework group  CS[SG(ClHO)]
 Deg. of freedom     3
 Full point group                 CS      NOp   2
 Largest Abelian subgroup         CS      NOp   2
 Largest concise Abelian subgroup C1      NOp   1
                         Standard orientation:                         
 ---------------------------------------------------------------------
 Center     Atomic      Atomic             Coordinates (Angstroms)
 Number     Number       Type             X           Y           Z
 ---------------------------------------------------------------------
      1          8           0        0.035146    2.224404   -0.000000
      2         17           0        0.035146   -1.156337    0.000000
      3          1           0       -0.878649    1.862494   -0.000000
 ---------------------------------------------------------------------
 Rotational constants (GHZ):         631.0180949           3.9101103           3.8860304
 Standard basis: SVP (5D, 7F)
 There are    29 symmetry adapted cartesian basis functions of A'  symmetry.
 There are    10 symmetry adapted cartesian basis functions of A"  symmetry.
 There are    27 symmetry adapted basis functions of A'  symmetry.
 There are    10 symmetry adapted basis functions of A"  symmetry.
    37 basis functions,    69 primitive gaussians,    39 cartesian basis functions
    13 alpha electrons       13 beta electrons
       nuclear repulsion energy        28.4471126431 Hartrees.
 NAtoms=    3 NActive=    3 NUniq=    3 SFac= 1.00D+00 NAtFMM=   60 NAOKFM=F Big=F
 Integral buffers will be    131072 words long.
 Raffenetti 2 integral format.
 Two-electron integral symmetry is turned on.
 Nuclear repulsion after empirical dispersion term =       28.4459860198 Hartrees.
 One-electron integrals computed using PRISM.
 NBasis=    37 RedAO= T EigKep=  5.52D-02  NBF=    27    10
 NBsUse=    37 1.00D-06 EigRej= -1.00D+00 NBFU=    27    10
 Initial guess from the checkpoint file:  "/tmp/Gau-5431.chk"
 B after Tr=     0.000000   -0.000000   -0.000000
         Rot=    1.000000   -0.000000    0.000000    0.000688 Ang=   0.08 deg.
 Initial guess orbital symmetries:
       Occupied  (A') (A') (A') (A') (A') (A") (A') (A') (A') (A")
                 (A') (A') (A")
       Virtual   (A') (A') (A') (A') (A') (A") (A') (A') (A") (A')
                 (A') (A") (A') (A") (A') (A') (A') (A") (A') (A")
                 (A') (A') (A") (A')
 ExpMin= 1.22D-01 ExpMax= 1.04D+04 ExpMxC= 1.57D+03 IAcc=2 IRadAn=         4 AccDes= 0.00D+00
 Harris functional with IExCor=  402 and IRadAn=       4 diagonalized for initial guess.
 HarFok:  IExCor=  402 AccDes= 0.00D+00 IRadAn=         4 IDoV= 1 UseB2=F ITyADJ=14
 ICtDFT=  3500011 ScaDFX=  1.000000  1.000000  1.000000  1.000000
 FoFCou: FMM=F IPFlag=           0 FMFlag=      100000 FMFlg1=           0
         NFxFlg=           0 DoJE=T BraDBF=F KetDBF=T FulRan=T
         wScrn=  0.000000 ICntrl=       500 IOpCl=  0 I1Cent=   200000004 NGrid=           0
         NMat0=    1 NMatS0=      1 NMatT0=    0 NMatD0=    1 NMtDS0=    0 NMtDT0=    0
 Petite list used in FoFCou.
 Keep R1 ints in memory in symmetry-blocked form, NReq=7153137.
 Requested convergence on RMS density matrix=1.00D-08 within 128 cycles.
 Requested convergence on MAX density matrix=1.00D-06.
 Requested convergence on             energy=1.00D-06.
 No special actions if energy rises.
 Integral accuracy reduced to 1.0D-05 until final iterations.
 Initial convergence to 1.0D-05 achieved.  Increase integral accuracy.
 SCF Done:  E(RB3LYP) =  -535.610889214     A.U. after   20 cycles
            NFock= 20  Conv=0.65D-08     -V/T= 2.0028
 Calling FoFJK, ICntrl=      2127 FMM=F ISym2X=1 I1Cent= 0 IOpClX= 0 NMat=1 NMatS=1 NMatT=0.
 ***** Axes restored to original set *****
 -------------------------------------------------------------------
 Center     Atomic                   Forces (Hartrees/Bohr)
 Number     Number              X              Y              Z
 -------------------------------------------------------------------
      1        8          -0.000839102    0.025409025   -0.005024102
      2       17           0.001059504   -0.023609847    0.004579007
      3        1          -0.000220402   -0.001799177    0.000445095
 -------------------------------------------------------------------
 Cartesian Forces:  Max     0.025409025 RMS     0.011806602

 GradGradGradGradGradGradGradGradGradGradGradGradGradGradGradGradGradGrad
 Berny optimization.
 FormGI is forming the generalized inverse of G from B-inverse, IUseBI=4.
 Internal  Forces:  Max     0.024067308 RMS     0.014033456
 Search for a saddle point.
 Step number   9 out of a maximum of  100
 All quantities printed in internal units (Hartrees-Bohrs-Radians)
 Swapping is turned off.
 Update second derivatives using D2CorX and points    7    8    9
 The second derivative matrix:
                          R1        R2        A1
           R1          -0.01495
           R2          -0.00042   0.55137
           A1           0.01530  -0.00171   0.10144
 ITU=  0  0  0  0
     Eigenvalues ---   -0.01693   0.10341   0.55138
 Eigenvectors required to have negative eigenvalues:
                          R1        A1        R2
   1                   -0.99175   0.12821  -0.00036
 RFO step:  Lambda0=1.727035423D-02 Lambda=-9.72437912D-07.
 Linear search not attempted -- option 19 set.
 Maximum step size (   0.300) exceeded in Quadratic search.
    -- Step size scaled by   0.422
 Iteration  1 RMS(Cart)=  0.08367753 RMS(Int)=  0.05640343
 Iteration  2 RMS(Cart)=  0.04577491 RMS(Int)=  0.00001876
 Iteration  3 RMS(Cart)=  0.00002811 RMS(Int)=  0.00000000
 Iteration  4 RMS(Cart)=  0.00000000 RMS(Int)=  0.00000000
 ClnCor:  largest displacement from symmetrization is 6.22D-15 for atom     1.
 Variable       Old X    -DE/DX   Delta X   Delta X   Delta X     New X
                                 (Linear)    (Quad)   (Total)
    R1        6.38867  -0.02407   0.00000   0.29766   0.29766   6.68633
    R2        1.85732  -0.00042   0.00000  -0.00021  -0.00021   1.85711
    A1        1.19370   0.00338   0.00000  -0.03741  -0.03741   1.15629
         Item               Value     Threshold  Converged?
 Maximum Force            0.024067     0.000450     NO 
 RMS     Force            0.014033     0.000300     NO 
 Maximum Displacement     0.170223     0.001800     NO 
 RMS     Displacement     0.127598     0.001200     NO 
 Predicted change in Energy= 6.528504D-03
 GradGradGradGradGradGradGradGradGradGradGradGradGradGradGradGradGradGrad

                          Input orientation:                          
 ---------------------------------------------------------------------
 Center     Atomic      Atomic             Coordinates (Angstroms)
 Number     Number       Type             X           Y           Z
 ---------------------------------------------------------------------
      1          8           0        4.793777   -5.266965    2.450154
      2         17           0        4.729450   -1.799570    1.748527
      3          1           0        3.928185   -4.841169    2.637855
 ---------------------------------------------------------------------
                    Distance matrix (angstroms):
                    1          2          3
     1  O    0.000000
     2  Cl   3.538255   0.000000
     3  H    0.982743   3.268677   0.000000
 Stoichiometry    ClHO
 Framework group  CS[SG(ClHO)]
 Deg. of freedom     3
 Full point group                 CS      NOp   2
 Largest Abelian subgroup         CS      NOp   2
 Largest concise Abelian subgroup C1      NOp   1
                         Standard orientation:                         
 ---------------------------------------------------------------------
 Center     Atomic      Atomic             Coordinates (Angstroms)
 Number     Number       Type             X           Y           Z
 ---------------------------------------------------------------------
      1          8           0        0.034597    2.328697   -0.000000
      2         17           0        0.034597   -1.209558    0.000000
      3          1           0       -0.864924    1.932912   -0.000000
 ---------------------------------------------------------------------
 Rotational constants (GHZ):         650.8721241           3.5715413           3.5520501
 Standard basis: SVP (5D, 7F)
 There are    29 symmetry adapted cartesian basis functions of A'  symmetry.
 There are    10 symmetry adapted cartesian basis functions of A"  symmetry.
 There are    27 symmetry adapted basis functions of A'  symmetry.
 There are    10 symmetry adapted basis functions of A"  symmetry.
    37 basis functions,    69 primitive gaussians,    39 cartesian basis functions
    13 alpha electrons       13 beta electrons
       nuclear repulsion energy        27.3999449793 Hartrees.
 NAtoms=    3 NActive=    3 NUniq=    3 SFac= 1.00D+00 NAtFMM=   60 NAOKFM=F Big=F
 Integral buffers will be    131072 words long.
 Raffenetti 2 integral format.
 Two-electron integral symmetry is turned on.
 Nuclear repulsion after empirical dispersion term =       27.3989332910 Hartrees.
[...]
 Requested convergence on MAX density matrix=1.00D-06.
 Requested convergence on             energy=1.00D-06.
 No special actions if energy rises.
 Integral accuracy reduced to 1.0D-05 until final iterations.
 Initial convergence to 1.0D-05 achieved.  Increase integral accuracy.
 SCF Done:  E(RB3LYP) =  -535.577360566     A.U. after   40 cycles
            NFock= 40  Conv=0.65D-08     -V/T= 2.0026
 Calling FoFJK, ICntrl=      2127 FMM=F ISym2X=1 I1Cent= 0 IOpClX= 0 NMat=1 NMatS=1 NMatT=0.
 ***** Axes restored to original set *****
 -------------------------------------------------------------------
 Center     Atomic                   Forces (Hartrees/Bohr)
 Number     Number              X              Y              Z
 -------------------------------------------------------------------
      1        8           0.000534338    0.008105563   -0.001858788
      2       17          -0.000038780   -0.000541650    0.000125194
      3        1          -0.000495558   -0.007563913    0.001733594
 -------------------------------------------------------------------
 Cartesian Forces:  Max     0.008105563 RMS     0.003803727

 GradGradGradGradGradGradGradGradGradGradGradGradGradGradGradGradGradGrad
 Berny optimization.
 FormGI is forming the generalized inverse of G from B-inverse, IUseBI=4.
 Internal  Forces:  Max     0.007775841 RMS     0.004500899
 Search for a saddle point.
 Step number  43 out of a maximum of  100
 All quantities printed in internal units (Hartrees-Bohrs-Radians)
 Swapping is turned off.
 Update second derivatives using D2CorX and points   40   41   42   43
 The second derivative matrix:
                          R1        R2        A1
           R1          -0.00048
           R2          -0.00169   0.47587
           A1           0.00040  -0.01097   0.00229
 ITU=  0  0  0  0
     Eigenvalues ---   -0.00054   0.00208   0.47613
 Eigenvectors required to have negative eigenvalues:
                          R1        A1        R2
   1                    0.99041  -0.13816   0.00032
 RFO step:  Lambda0=3.468522011D-04 Lambda=-1.57082486D-04.
 Linear search not attempted -- option 19 set.
 Maximum step size (   0.300) exceeded in Quadratic search.
    -- Step size scaled by   0.471
 Iteration  1 RMS(Cart)=  0.08429240 RMS(Int)=  0.12069536
 Iteration  2 RMS(Cart)=  0.10404530 RMS(Int)=  0.08471489
 New curvilinear step failed, DQL= 5.15D-02 SP=-5.21D-01.
 ITry= 1 IFail=1 DXMaxC= 1.59D-01 DCOld= 1.00D+10 DXMaxT= 3.00D-01 DXLimC= 3.00D+00 Rises=F
 Iteration  1 RMS(Cart)=  0.08782955 RMS(Int)=  0.10057108
 Iteration  2 RMS(Cart)=  0.08476929 RMS(Int)=  0.07067773
 New curvilinear step failed, DQL= 5.26D-02 SP=-5.99D-01.
 ITry= 2 IFail=1 DXMaxC= 1.44D-01 DCOld= 1.00D+10 DXMaxT= 3.00D-01 DXLimC= 3.00D+00 Rises=F
 Iteration  1 RMS(Cart)=  0.09067064 RMS(Int)=  0.08202128
 Iteration  2 RMS(Cart)=  0.05769580 RMS(Int)=  0.05153560
 New curvilinear step failed, DQL= 6.43D-02 SP=-6.55D-01.
 ITry= 3 IFail=1 DXMaxC= 1.27D-01 DCOld= 1.00D+10 DXMaxT= 3.00D-01 DXLimC= 3.00D+00 Rises=F
 Iteration  1 RMS(Cart)=  0.09240584 RMS(Int)=  0.06637175
 New curvilinear step failed, DQL= 3.37D-02 SP=-4.50D-02.
 ITry= 4 IFail=1 DXMaxC= 1.12D-01 DCOld= 1.00D+10 DXMaxT= 3.00D-01 DXLimC= 3.00D+00 Rises=F
 Iteration  1 RMS(Cart)=  0.07990307 RMS(Int)=  0.05597625
 New curvilinear step failed, DQL= 2.73D-02 SP=-5.45D-02.
 ITry= 5 IFail=1 DXMaxC= 9.64D-02 DCOld= 1.00D+10 DXMaxT= 3.00D-01 DXLimC= 3.00D+00 Rises=F
 Iteration  1 RMS(Cart)=  0.06738510 RMS(Int)=  0.04558926
 New curvilinear step failed, DQL= 2.10D-02 SP=-6.78D-02.
 ITry= 6 IFail=1 DXMaxC= 8.13D-02 DCOld= 1.00D+10 DXMaxT= 3.00D-01 DXLimC= 3.00D+00 Rises=F
 Iteration  1 RMS(Cart)=  0.05484139 RMS(Int)=  0.03521489
 New curvilinear step failed, DQL= 1.49D-02 SP=-8.76D-02.
 ITry= 7 IFail=1 DXMaxC= 6.62D-02 DCOld= 1.00D+10 DXMaxT= 3.00D-01 DXLimC= 3.00D+00 Rises=F
 Iteration  1 RMS(Cart)=  0.04224432 RMS(Int)=  0.02486145
 New curvilinear step failed, DQL= 8.94D-03 SP=-1.21D-01.
 ITry= 8 IFail=1 DXMaxC= 5.10D-02 DCOld= 1.00D+10 DXMaxT= 3.00D-01 DXLimC= 3.00D+00 Rises=F
 Iteration  1 RMS(Cart)=  0.02949509 RMS(Int)=  0.01454628
 New curvilinear step failed, DQL= 3.38D-03 SP=-1.89D-01.
 ITry= 9 IFail=1 DXMaxC= 3.56D-02 DCOld= 1.00D+10 DXMaxT= 3.00D-01 DXLimC= 3.00D+00 Rises=F
 Iteration  1 RMS(Cart)=  0.01562514 RMS(Int)=  0.00408896
 Iteration  2 RMS(Cart)=  0.00574562 RMS(Int)=  0.00408570
 Iteration  3 RMS(Cart)=  0.00574116 RMS(Int)=  0.00408561
 Iteration  4 RMS(Cart)=  0.00574102 RMS(Int)=  0.00408561
 Iteration  5 RMS(Cart)=  0.00574102 RMS(Int)=  0.00408561
 Iteration  6 RMS(Cart)=  0.00574102 RMS(Int)=  0.00408561
 Iteration  7 RMS(Cart)=  0.00574102 RMS(Int)=  0.00408561
 Iteration  8 RMS(Cart)=  0.00574102 RMS(Int)=  0.00408561
 Iteration  9 RMS(Cart)=  0.00574102 RMS(Int)=  0.00408561
 Iteration 10 RMS(Cart)=  0.00574102 RMS(Int)=  0.00408561
 Iteration 11 RMS(Cart)=  0.00574102 RMS(Int)=  0.00408561
 Iteration 12 RMS(Cart)=  0.00574102 RMS(Int)=  0.00408561
 Iteration 13 RMS(Cart)=  0.00574102 RMS(Int)=  0.00408561
 Iteration 14 RMS(Cart)=  0.00574102 RMS(Int)=  0.00408561
 Iteration 15 RMS(Cart)=  0.00574102 RMS(Int)=  0.00408561
 Iteration 16 RMS(Cart)=  0.00574102 RMS(Int)=  0.00408561
 Iteration 17 RMS(Cart)=  0.00574102 RMS(Int)=  0.00408561
 Iteration 18 RMS(Cart)=  0.00574102 RMS(Int)=  0.00408561
 Iteration 19 RMS(Cart)=  0.00574102 RMS(Int)=  0.00408561
 Iteration 20 RMS(Cart)=  0.00574102 RMS(Int)=  0.00408561
 Iteration 21 RMS(Cart)=  0.00574102 RMS(Int)=  0.00408561
 Iteration 22 RMS(Cart)=  0.00574102 RMS(Int)=  0.00408561
 Iteration 23 RMS(Cart)=  0.00574102 RMS(Int)=  0.00408561
 Iteration 24 RMS(Cart)=  0.00574102 RMS(Int)=  0.00408561
 Iteration 25 RMS(Cart)=  0.00574102 RMS(Int)=  0.00408561
 Iteration 26 RMS(Cart)=  0.00574102 RMS(Int)=  0.00408561
 Iteration 27 RMS(Cart)=  0.00574102 RMS(Int)=  0.00408561
 Iteration 28 RMS(Cart)=  0.00574102 RMS(Int)=  0.00408561
 Iteration 29 RMS(Cart)=  0.00574102 RMS(Int)=  0.00408561
 Iteration 30 RMS(Cart)=  0.00574102 RMS(Int)=  0.00408561
 Iteration 31 RMS(Cart)=  0.00574102 RMS(Int)=  0.00408561
 Iteration 32 RMS(Cart)=  0.00574102 RMS(Int)=  0.00408561
 Iteration 33 RMS(Cart)=  0.00574102 RMS(Int)=  0.00408561
 Iteration 34 RMS(Cart)=  0.00574102 RMS(Int)=  0.00408561
 Iteration 35 RMS(Cart)=  0.00574102 RMS(Int)=  0.00408561
 Iteration 36 RMS(Cart)=  0.00574102 RMS(Int)=  0.00408561
 Iteration 37 RMS(Cart)=  0.00574102 RMS(Int)=  0.00408561
 Iteration 38 RMS(Cart)=  0.00574102 RMS(Int)=  0.00408561
 Iteration 39 RMS(Cart)=  0.00574102 RMS(Int)=  0.00408561
 Iteration 40 RMS(Cart)=  0.00574102 RMS(Int)=  0.00408561
 Iteration 41 RMS(Cart)=  0.00574102 RMS(Int)=  0.00408561
 Iteration 42 RMS(Cart)=  0.00574102 RMS(Int)=  0.00408561
 Iteration 43 RMS(Cart)=  0.00574102 RMS(Int)=  0.00408561
 Iteration 44 RMS(Cart)=  0.00574102 RMS(Int)=  0.00408561
 Iteration 45 RMS(Cart)=  0.00574102 RMS(Int)=  0.00408561
 Iteration 46 RMS(Cart)=  0.00574102 RMS(Int)=  0.00408561
 Iteration 47 RMS(Cart)=  0.00574102 RMS(Int)=  0.00408561
 Iteration 48 RMS(Cart)=  0.00574102 RMS(Int)=  0.00408561
 Iteration 49 RMS(Cart)=  0.00574102 RMS(Int)=  0.00408561
 Iteration 50 RMS(Cart)=  0.00574102 RMS(Int)=  0.00408561
 Iteration 51 RMS(Cart)=  0.00574102 RMS(Int)=  0.00408561
 Iteration 52 RMS(Cart)=  0.00574102 RMS(Int)=  0.00408561
 Iteration 53 RMS(Cart)=  0.00574102 RMS(Int)=  0.00408561
 Iteration 54 RMS(Cart)=  0.00574102 RMS(Int)=  0.00408561
 Iteration 55 RMS(Cart)=  0.00574102 RMS(Int)=  0.00408561
 Iteration 56 RMS(Cart)=  0.00574102 RMS(Int)=  0.00408561
 Iteration 57 RMS(Cart)=  0.00574102 RMS(Int)=  0.00408561
 Iteration 58 RMS(Cart)=  0.00574102 RMS(Int)=  0.00408561
 Iteration 59 RMS(Cart)=  0.00574102 RMS(Int)=  0.00408561
 Iteration 60 RMS(Cart)=  0.00574102 RMS(Int)=  0.00408561
 Iteration 61 RMS(Cart)=  0.00574102 RMS(Int)=  0.00408561
 Iteration 62 RMS(Cart)=  0.00574102 RMS(Int)=  0.00408561
 Iteration 63 RMS(Cart)=  0.00574102 RMS(Int)=  0.00408561
 Iteration 64 RMS(Cart)=  0.00574102 RMS(Int)=  0.00408561
 Iteration 65 RMS(Cart)=  0.00574102 RMS(Int)=  0.00408561
 Iteration 66 RMS(Cart)=  0.00574102 RMS(Int)=  0.00408561
 Iteration 67 RMS(Cart)=  0.00574102 RMS(Int)=  0.00408561
 Iteration 68 RMS(Cart)=  0.00574102 RMS(Int)=  0.00408561
 Iteration 69 RMS(Cart)=  0.00574102 RMS(Int)=  0.00408561
 Iteration 70 RMS(Cart)=  0.00574102 RMS(Int)=  0.00408561
 Iteration 71 RMS(Cart)=  0.00574102 RMS(Int)=  0.00408561
 Iteration 72 RMS(Cart)=  0.00574102 RMS(Int)=  0.00408561
 Iteration 73 RMS(Cart)=  0.00574102 RMS(Int)=  0.00408561
 Iteration 74 RMS(Cart)=  0.00574102 RMS(Int)=  0.00408561
 Iteration 75 RMS(Cart)=  0.00574102 RMS(Int)=  0.00408561
 Iteration 76 RMS(Cart)=  0.00574102 RMS(Int)=  0.00408561
 Iteration 77 RMS(Cart)=  0.00574102 RMS(Int)=  0.00408561
 Iteration 78 RMS(Cart)=  0.00574102 RMS(Int)=  0.00408561
 Iteration 79 RMS(Cart)=  0.00574102 RMS(Int)=  0.00408561
 Iteration 80 RMS(Cart)=  0.00574102 RMS(Int)=  0.00408561
 Iteration 81 RMS(Cart)=  0.00574102 RMS(Int)=  0.00408561
 Iteration 82 RMS(Cart)=  0.00574102 RMS(Int)=  0.00408561
 Iteration 83 RMS(Cart)=  0.00574102 RMS(Int)=  0.00408561
 Iteration 84 RMS(Cart)=  0.00574102 RMS(Int)=  0.00408561
 Iteration 85 RMS(Cart)=  0.00574102 RMS(Int)=  0.00408561
 Iteration 86 RMS(Cart)=  0.00574102 RMS(Int)=  0.00408561
 Iteration 87 RMS(Cart)=  0.00574102 RMS(Int)=  0.00408561
 Iteration 88 RMS(Cart)=  0.00574102 RMS(Int)=  0.00408561
 Iteration 89 RMS(Cart)=  0.00574102 RMS(Int)=  0.00408561
 Iteration 90 RMS(Cart)=  0.00574102 RMS(Int)=  0.00408561
 Iteration 91 RMS(Cart)=  0.00574102 RMS(Int)=  0.00408561
 Iteration 92 RMS(Cart)=  0.00574102 RMS(Int)=  0.00408561
 Iteration 93 RMS(Cart)=  0.00574102 RMS(Int)=  0.00408561
 Iteration 94 RMS(Cart)=  0.00574102 RMS(Int)=  0.00408561
 Iteration 95 RMS(Cart)=  0.00574102 RMS(Int)=  0.00408561
 Iteration 96 RMS(Cart)=  0.00574102 RMS(Int)=  0.00408561
 Iteration 97 RMS(Cart)=  0.00574102 RMS(Int)=  0.00408561
 Iteration 98 RMS(Cart)=  0.00574102 RMS(Int)=  0.00408561
 Iteration 99 RMS(Cart)=  0.00574102 RMS(Int)=  0.00408561
 Iteration100 RMS(Cart)=  0.00574102 RMS(Int)=  0.00408561
 New curvilinear step not converged.
 ITry=10 IFail=1 DXMaxC= 1.87D-02 DCOld= 1.00D+10 DXMaxT= 3.00D-01 DXLimC= 3.00D+00 Rises=F
 RedQX1 iteration     1 Try  1 RMS(Cart)=  0.03125028 RMS(Int)=  0.14402857 XScale=  5.22977466
 RedQX1 iteration     1 Try  2 RMS(Cart)=  0.03416915 RMS(Int)=  0.12303362 XScale=  2.53314106
 RedQX1 iteration     1 Try  3 RMS(Cart)=  0.04397129 RMS(Int)=  0.11818219 XScale=  1.60742785
 RedQX1 iteration     1 Try  4 RMS(Cart)=  0.07439410 RMS(Int)=  0.15111868 XScale=  1.07572040
 RedQX1 iteration     1 Try  5 RMS(Cart)=  0.20909582 RMS(Int)=  0.29654978 XScale=  0.58839389
 RedQX1 iteration     2 Try  1 RMS(Cart)=  0.04181916 RMS(Int)=  0.17894563 XScale=  0.93790077
 RedQX1 iteration     3 Try  1 RMS(Cart)=  0.00836383 RMS(Int)=  0.15660833 XScale=  1.04617595
 RedQX1 iteration     3 Try  2 RMS(Cart)=  0.00904484 RMS(Int)=  0.16261721 XScale=  1.01582075
 RedQX1 iteration     3 Try  3 RMS(Cart)=  0.00981447 RMS(Int)=  0.16920753 XScale=  0.98458635
 RedQX1 iteration     4 Try  1 RMS(Cart)=  0.00902931 RMS(Int)=  0.16867879 XScale=  0.98704051
 RedQX1 iteration     5 Try  1 RMS(Cart)=  0.00180586 RMS(Int)=  0.16382666 XScale=  1.00998295
 RedQX1 iteration     5 Try  2 RMS(Cart)=  0.00183440 RMS(Int)=  0.16505757 XScale=  1.00411164
 RedQX1 iteration     5 Try  3 RMS(Cart)=  0.00186363 RMS(Int)=  0.16631042 XScale=  0.99820636
 RedQX1 iteration     6 Try  1 RMS(Cart)=  0.00183381 RMS(Int)=  0.16629037 XScale=  0.99830051
 RedQX1 iteration     7 Try  1 RMS(Cart)=  0.00036676 RMS(Int)=  0.16530401 XScale=  1.00294612
 RedQX1 iteration     7 Try  2 RMS(Cart)=  0.00036791 RMS(Int)=  0.16555132 XScale=  1.00177926
 RedQX1 iteration     7 Try  3 RMS(Cart)=  0.00036907 RMS(Int)=  0.16579950 XScale=  1.00061105
 RedQX1 iteration     7 Try  4 RMS(Cart)=  0.00037023 RMS(Int)=  0.16604855 XScale=  0.99944148
 RedQX1 iteration     7 Try  5 RMS(Cart)=  0.00037140 RMS(Int)=  0.16629848 XScale=  0.99827057
 RedQX1 iteration     8 Try  1 RMS(Cart)=  0.00036903 RMS(Int)=  0.16629688 XScale=  0.99827806
 RedQX1 iteration     9 Try  1 RMS(Cart)=  0.00007381 RMS(Int)=  0.16609821 XScale=  0.99920867
 RedQX1 iteration     9 Try  2 RMS(Cart)=  0.00007385 RMS(Int)=  0.16614791 XScale=  0.99897579
 RedQX1 iteration    10 Try  1 RMS(Cart)=  0.00007383 RMS(Int)=  0.16614789 XScale=  0.99897587
 RedQX1 iteration    11 Try  1 RMS(Cart)=  0.00001477 RMS(Int)=  0.16610815 XScale=  0.99916210
 RedQX1 iteration    11 Try  2 RMS(Cart)=  0.00001477 RMS(Int)=  0.16611809 XScale=  0.99911553
 RedQX1 iteration    11 Try  3 RMS(Cart)=  0.00001477 RMS(Int)=  0.16612802 XScale=  0.99906897
 RedQX1 iteration    11 Try  4 RMS(Cart)=  0.00001477 RMS(Int)=  0.16613796 XScale=  0.99902239
 RedQX1 iteration    11 Try  5 RMS(Cart)=  0.00001477 RMS(Int)=  0.16614791 XScale=  0.99897582
 RedQX1 iteration    12 Try  1 RMS(Cart)=  0.00001477 RMS(Int)=  0.16614790 XScale=  0.99897583
 RedQX1 iteration    13 Try  1 RMS(Cart)=  0.00000295 RMS(Int)=  0.16613995 XScale=  0.99901308
 RedQX1 iteration    13 Try  2 RMS(Cart)=  0.00000295 RMS(Int)=  0.16614194 XScale=  0.99900377
 RedQX1 iteration    13 Try  3 RMS(Cart)=  0.00000295 RMS(Int)=  0.16614393 XScale=  0.99899446
 RedQX1 iteration    14 Try  1 RMS(Cart)=  0.00000295 RMS(Int)=  0.16614393 XScale=  0.99899446
 RedQX1 iteration    15 Try  1 RMS(Cart)=  0.00000059 RMS(Int)=  0.16614234 XScale=  0.99900191
 RedQX1 iteration    15 Try  2 RMS(Cart)=  0.00000059 RMS(Int)=  0.16614273 XScale=  0.99900004
 RedQX1 iteration    15 Try  3 RMS(Cart)=  0.00000059 RMS(Int)=  0.16614313 XScale=  0.99899818
 RedQX1 iteration    16 Try  1 RMS(Cart)=  0.00000059 RMS(Int)=  0.16614313 XScale=  0.99899818
 RedQX1 iteration    17 Try  1 RMS(Cart)=  0.00000012 RMS(Int)=  0.16614281 XScale=  0.99899967
 RedQX1 iteration    18 Try  1 RMS(Cart)=  0.00000002 RMS(Int)=  0.16614275 XScale=  0.99899997
 RedQX1 iteration    19 Try  1 RMS(Cart)=  0.00000000 RMS(Int)=  0.16614274 XScale=  0.99900003
 ClnCor:  largest displacement from symmetrization is 8.70D-15 for atom     3.
 B after Tr=    18.016295   -0.098847    5.167312
         Rot=    0.000000    0.069782    0.971924   -0.224707 Ang= 180.00 deg.
 Variable       Old X    -DE/DX   Delta X   Delta X   Delta X     New X
                                 (Linear)    (Quad)   (Total)
    R1       14.20612  -0.00056   0.00000   0.28449   0.23403  14.44015
    R2        1.87126  -0.00778   0.00000  -0.00887   0.02666   1.89792
    A1        0.00594  -0.00000   0.00000  -0.09479   0.18628   0.19222
         Item               Value     Threshold  Converged?
 Maximum Force            0.007776     0.000450     NO 
 RMS     Force            0.004501     0.000300     NO 
 Maximum Displacement     0.194646     0.001800     NO 
 RMS     Displacement     0.189581     0.001200     NO 
 Predicted change in Energy= 4.858139D-04
 GradGradGradGradGradGradGradGradGradGradGradGradGradGradGradGradGradGrad

                          Input orientation:                          
 ---------------------------------------------------------------------
 Center     Atomic      Atomic             Coordinates (Angstroms)
 Number     Number       Type             X           Y           Z
 ---------------------------------------------------------------------
      1          8           0        4.372612   -6.775864    2.898896
      2         17           0        4.829953    0.661130    1.203938
      3          1           0        4.248847   -5.792970    2.733703
 ---------------------------------------------------------------------
                    Distance matrix (angstroms):
                    1          2          3
     1  O    0.000000
     2  Cl   7.641396   0.000000
     3  H    1.004335   6.658323   0.000000
 Stoichiometry    ClHO
 Framework group  CS[SG(ClHO)]
 Deg. of freedom     3
 Full point group                 CS      NOp   2
 Largest Abelian subgroup         CS      NOp   2
 Largest concise Abelian subgroup C1      NOp   1
                         Standard orientation:                         
 ---------------------------------------------------------------------
 Center     Atomic      Atomic             Coordinates (Angstroms)
 Number     Number       Type             X           Y           Z
 ---------------------------------------------------------------------
      1          8           0        0.007379    5.034214    0.000000
      2         17           0        0.007379   -2.607182    0.000000
      3          1           0       -0.184486    4.048377    0.000000
 ---------------------------------------------------------------------
 Rotational constants (GHZ):       14279.5457616           0.7671791           0.7671379
 Standard basis: SVP (5D, 7F)
 There are    29 symmetry adapted cartesian basis functions of A'  symmetry.
 There are    10 symmetry adapted cartesian basis functions of A"  symmetry.
 There are    27 symmetry adapted basis functions of A'  symmetry.
 There are    10 symmetry adapted basis functions of A"  symmetry.
    37 basis functions,    69 primitive gaussians,    39 cartesian basis functions
    13 alpha electrons       13 beta electrons
       nuclear repulsion energy        14.9844270952 Hartrees.
 NAtoms=    3 NActive=    3 NUniq=    3 SFac= 1.00D+00 NAtFMM=   60 NAOKFM=F Big=F
 Integral buffers will be    131072 words long.
 Raffenetti 2 integral format.
 Two-electron integral symmetry is turned on.
 Nuclear repulsion after empirical dispersion term =       14.9841710564 Hartrees.
 One-electron integrals computed using PRISM.
 NBasis=    37 RedAO= T EigKep=  5.85D-02  NBF=    27    10
 NBsUse=    37 1.00D-06 EigRej= -1.00D+00 NBFU=    27    10
 Initial guess from the checkpoint file:  "/tmp/Gau-5431.chk"
 B after Tr=    -0.000000   -0.000000    0.000000
         Rot=    0.999999    0.000000   -0.000000   -0.001119 Ang=  -0.13 deg.
 Initial guess orbital symmetries:
       Occupied  (A') (A') (A') (A') (A') (A") (A') (A') (A') (A")
                 (A') (A") (A')
       Virtual   (A') (A') (A') (A') (A') (A') (A") (A') (A") (A')
                 (A') (A') (A") (A') (A") (A') (A') (A") (A') (A")
                 (A') (A') (A") (A')
 ExpMin= 1.22D-01 ExpMax= 1.04D+04 ExpMxC= 1.57D+03 IAcc=2 IRadAn=         4 AccDes= 0.00D+00
 Harris functional with IExCor=  402 and IRadAn=       4 diagonalized for initial guess.
 HarFok:  IExCor=  402 AccDes= 0.00D+00 IRadAn=         4 IDoV= 1 UseB2=F ITyADJ=14
 ICtDFT=  3500011 ScaDFX=  1.000000  1.000000  1.000000  1.000000
 FoFCou: FMM=F IPFlag=           0 FMFlag=      100000 FMFlg1=           0
         NFxFlg=           0 DoJE=T BraDBF=F KetDBF=T FulRan=T
         wScrn=  0.000000 ICntrl=       500 IOpCl=  0 I1Cent=   200000004 NGrid=           0
         NMat0=    1 NMatS0=      1 NMatT0=    0 NMatD0=    1 NMtDS0=    0 NMtDT0=    0
 Petite list used in FoFCou.
 Keep R1 ints in memory in symmetry-blocked form, NReq=7153137.
 Requested convergence on RMS density matrix=1.00D-08 within 128 cycles.
 Requested convergence on MAX density matrix=1.00D-06.
 Requested convergence on             energy=1.00D-06.
 No special actions if energy rises.
 Integral accuracy reduced to 1.0D-05 until final iterations.
 Initial convergence to 1.0D-05 achieved.  Increase integral accuracy.
 >>>>>>>>>> Convergence criterion not met.
 SCF Done:  E(RB3LYP) =  -535.576863586     A.U. after  129 cycles
            NFock=128  Conv=0.25D-06     -V/T= 2.0026
 Convergence failure -- run terminated.
 Error termination via Lnk1e in /share/apps/g16.a03/g16/l502.exe at Thu Mar  6 16:41:29 2025.
 Job cpu time:       0 days  0 hours  8 minutes 20.2 seconds.
 Elapsed time:       0 days  0 hours  1 minutes  3.8 seconds.
 File lengths (MBytes):  RWF=      6 Int=      0 D2E=      0 Chk=      1 Scr=      1
