70
 energy: -143.120639049205 gnorm: 0.102089378145 xtb: 6.6.1 (8d0f1dd)
O    -0.09155178    -3.80220515     1.01116734
H    -0.91023542    -3.70132725     0.52237417
H    -0.24814415    -3.74242745     1.95522462
O     0.15283136     1.80445221    -3.33227248
H     0.71998928     1.05640883    -3.13707567
H     0.47018159     2.46160561    -2.71035905
O    -1.50174809     1.67190238     3.67546041
H    -0.87068070     1.06127964     3.29045074
H    -2.33261460     1.21041310     3.80205759
O     1.30986823    -0.40239570     3.69757600
H     1.02507601     0.50105159     3.54920024
H     2.16950418    -0.48004475     3.28004142
O    -2.51632449    -0.48341857    -2.78205130
H    -1.57550775    -0.30975142    -2.71846857
H    -2.97657439     0.26691658    -3.16218983
O     0.01918089    -2.73357564    -1.78674609
H    -0.86260027    -2.85407307    -2.14350979
H     0.15339415    -3.28951187    -1.01716104
O    -2.78171285    -3.66984204     0.78042592
H    -3.50174097    -3.28608967     0.27680794
H    -3.18335353    -4.45404025     1.15865406
O    -4.43976925    -2.18448158    -1.52717118
H    -4.49396474    -2.87526364    -2.18990881
H    -4.00060062    -1.49169616    -2.02367473
O     1.09144489     3.67152821    -1.73268023
H     1.84566824     4.19025494    -1.44735879
H     0.44617795     3.64073110    -1.02414659
O     1.32901179    -0.67018254    -3.60330295
H     1.26448505    -1.53601090    -3.19646652
H     1.10826992    -0.76540817    -4.53149658
O    -2.38013552     2.38802072    -3.42620069
Cl    -2.20656911     3.26965172    -1.97921634
H    -1.46554369     2.21011891    -3.67611894
O     2.97597290     4.85505185    -0.21366546
Cl     3.70252382     6.26692410     0.40269902
H     3.35343952     4.01767417     0.08113055
O    -0.62646647    -2.87130176     3.48342296
Cl    -2.19180720    -2.22406611     3.66219162
H    -0.03372458    -2.37942328     4.06419722
O     1.15922663     4.07663388     4.08933552
Cl     0.78371692     3.57825073     2.50447984
H     0.34717970     3.97035982     4.59911360
C     5.10782509    -0.84663973    -0.32825333
C     4.50481742    -1.97022423     0.22370871
C     3.13440156    -2.01637517     0.39552073
C     2.37686523    -0.86955864     0.13505687
C     2.94650293     0.24972207    -0.47125910
C     4.32542990     0.25948353    -0.64694802
H     5.17449192    -2.76508530     0.52465196
H     2.65553578    -2.93824595     0.70670770
C    -2.31996939     0.37903474     0.78687602
C    -2.26196451     1.76982107     0.66760196
C    -3.52997254    -0.17131766     1.21915112
C    -3.29263961     2.64406822     0.98864757
H    -1.31999678     2.20707390     0.37799396
C    -4.54991135     0.65150652     1.66831426
C    -4.40788162     2.02440285     1.53023547
H    -3.19126577     3.70622321     0.80730445
H    -5.48289165     0.20656140     1.98825592
Cl     6.82440578    -0.80704019    -0.56698133
Cl    -5.69131991     2.97767240     2.22786233
N     0.99409391    -1.05536115     0.28656881
H     0.79017663    -1.92879705     0.74622324
C     0.06976651    -0.02402928     0.23377088
O     0.26635419     1.12917577    -0.06740301
N    -1.20035213    -0.44738254     0.57410026
H    -1.39376214    -1.43653157     0.57908304
H    -3.66739799    -1.24766495     1.21530323
H     2.35642129     1.07876615    -0.82686355
Cl     5.00285167     1.77234437    -1.15459065
