70
 energy: -143.093730186344 gnorm: 0.099524411959 xtb: 6.6.1 (8d0f1dd)
O     1.59439991    -2.74239474    -3.73313565
H     0.82007647    -2.64549507    -4.29024577
H     2.11196842    -3.52797298    -3.91841474
O     0.22808498    -0.04389841    -4.87927000
H     1.00902487    -0.59188839    -4.97507541
H     0.27857015     0.36120594    -4.01169880
O    -1.55949988     2.83562229     3.68015784
H    -1.28166678     1.92455354     3.79016293
H    -2.51327024     2.92133542     3.63205668
O     1.56467201    -0.43212868     4.68422218
H     1.15588790    -0.29809745     5.54111784
H     2.20261845     0.28362643     4.67664419
O    -4.59596745     1.27122445    -1.51399790
H    -4.13919566     0.45206707    -1.71319609
H    -4.40748726     1.89614068    -2.21634613
O    -1.57761654    -3.17474169    -5.38043820
H    -1.49374031    -3.75517271    -4.62188525
H    -1.70326777    -2.27136042    -5.08471280
O     1.63004749    -5.63765533    -2.10154431
H     0.71696128    -5.85370377    -1.90422708
H     1.70921011    -4.68365406    -2.15588995
O    -3.13104926    -2.35822956    -0.49230219
H    -3.81352200    -2.03475245    -1.08300659
H    -2.30078851    -2.06961533    -0.87532362
O     0.83565690     1.73133688    -2.70355632
H     1.29405330     2.44055852    -3.15766644
H     0.73194542     2.03156784    -1.79887786
O     0.39286881    -1.01823677    -1.73127928
H     1.00070309    -1.48996198    -2.30342538
H     0.57860898    -0.07967053    -1.79398725
O    -2.32878160     0.45678106    -3.03785471
Cl    -1.97269367     2.05403602    -3.51023189
H    -1.49799682     0.06996669    -2.73659450
O     0.24387275     4.78032050     2.60525913
Cl     0.90901556     4.39081990     1.08636513
H    -0.45032819     4.11614428     2.69210448
O    -0.90795859    -0.23076405     3.79952126
Cl    -1.38564384    -1.26435031     5.06628093
H     0.05523892    -0.26205120     3.84262341
O     1.53588949     2.75866719     3.83716644
Cl     3.00807271     2.65267411     4.68722695
H     1.46128392     3.61871521     3.40665570
C     5.15384917    -0.41420328     0.30884793
C     4.54817514    -1.21089560     1.27277883
C     3.17511153    -1.18885628     1.42737335
C     2.38785694    -0.25919161     0.73973639
C     3.00698060     0.51265310    -0.24303370
C     4.37486201     0.43047576    -0.47659051
H     5.16527361    -1.87398578     1.86467053
H     2.67844488    -1.94342096     2.02733156
C    -2.20809706     1.50113579     1.04452075
C    -2.40380031     2.61062719     0.21832076
C    -3.28003025     1.09293742     1.84338896
C    -3.65995671     3.20036318     0.15545550
H    -1.57038201     2.90663455    -0.39825004
C    -4.49665299     1.75521225     1.86022438
C    -4.70235526     2.80745210     0.98013328
H    -3.87144165     3.89187751    -0.64978808
H    -5.21572506     1.47886515     2.62006559
Cl     6.83392896    -0.63269872    -0.05830344
Cl    -6.25451152     3.59796728     0.88784807
N     1.00407861    -0.21089168     0.96855840
H     0.65063108    -0.92986830     1.58003380
C     0.06858566     0.70772098     0.51931706
O     0.25714302     1.53232459    -0.34306871
N    -1.08747510     0.68085044     1.27499875
H    -1.17808707    -0.12941167     1.86754645
H    -3.19140701     0.25342337     2.52514118
H     2.37863312     1.17079447    -0.82095612
Cl     4.84334557     1.30209982    -1.90001732
