 Entering Gaussian System, Link 0=g16
 Input=ts.gjf
 Output=ts.log
 Initial command:
 /share/apps/g16.a03/g16/l1.exe "/tmp/Gau-19703.inp" -scrdir="/tmp/"
 Entering Link 1 = /share/apps/g16.a03/g16/l1.exe PID=     19704.
  
 Copyright (c) 1988,1990,1992,1993,1995,1998,2003,2009,2016,
            Gaussian, Inc.  All Rights Reserved.
  
 This is part of the Gaussian(R) 16 program.  It is based on
 the Gaussian(R) 09 system (copyright 2009, Gaussian, Inc.),
 the Gaussian(R) 03 system (copyright 2003, Gaussian, Inc.),
 the Gaussian(R) 98 system (copyright 1998, Gaussian, Inc.),
 the Gaussian(R) 94 system (copyright 1995, Gaussian, Inc.),
 the Gaussian 92(TM) system (copyright 1992, Gaussian, Inc.),
 the Gaussian 90(TM) system (copyright 1990, Gaussian, Inc.),
 the Gaussian 88(TM) system (copyright 1988, Gaussian, Inc.),
 the Gaussian 86(TM) system (copyright 1986, Carnegie Mellon
 University), and the Gaussian 82(TM) system (copyright 1983,
 Carnegie Mellon University). Gaussian is a federally registered
 trademark of Gaussian, Inc.
  
 This software contains proprietary and confidential information,
 including trade secrets, belonging to Gaussian, Inc.
  
 This software is provided under written license and may be
 used, copied, transmitted, or stored only in accord with that
 written license.
  
 The following legend is applicable only to US Government
 contracts under FAR:
  
                    RESTRICTED RIGHTS LEGEND
  
 Use, reproduction and disclosure by the US Government is
 subject to restrictions as set forth in subparagraphs (a)
 and (c) of the Commercial Computer Software - Restricted
 Rights clause in FAR 52.227-19.
  
 Gaussian, Inc.
 340 Quinnipiac St., Bldg. 40, Wallingford CT 06492
  
  
 ---------------------------------------------------------------
 Warning -- This program may not be used in any manner that
 competes with the business of Gaussian, Inc. or will provide
 assistance to any competitor of Gaussian, Inc.  The licensee
 of this program is prohibited from giving any competitor of
 Gaussian, Inc. access to this program.  By using this program,
 the user acknowledges that Gaussian, Inc. is engaged in the
 business of creating and licensing software in the field of
 computational chemistry and represents and warrants to the
 licensee that it is not a competitor of Gaussian, Inc. and that
 it will not use this program in any manner prohibited above.
 ---------------------------------------------------------------
  

 Cite this work as:
 Gaussian 16, Revision A.03,
 M. J. Frisch, G. W. Trucks, H. B. Schlegel, G. E. Scuseria, 
 M. A. Robb, J. R. Cheeseman, G. Scalmani, V. Barone, 
 G. A. Petersson, H. Nakatsuji, X. Li, M. Caricato, A. V. Marenich, 
 J. Bloino, B. G. Janesko, R. Gomperts, B. Mennucci, H. P. Hratchian, 
 J. V. Ortiz, A. F. Izmaylov, J. L. Sonnenberg, D. Williams-Young, 
 F. Ding, F. Lipparini, F. Egidi, J. Goings, B. Peng, A. Petrone, 
 T. Henderson, D. Ranasinghe, V. G. Zakrzewski, J. Gao, N. Rega, 
 G. Zheng, W. Liang, M. Hada, M. Ehara, K. Toyota, R. Fukuda, 
 J. Hasegawa, M. Ishida, T. Nakajima, Y. Honda, O. Kitao, H. Nakai, 
 T. Vreven, K. Throssell, J. A. Montgomery, Jr., J. E. Peralta, 
 F. Ogliaro, M. J. Bearpark, J. J. Heyd, E. N. Brothers, K. N. Kudin, 
 V. N. Staroverov, T. A. Keith, R. Kobayashi, J. Normand, 
 K. Raghavachari, A. P. Rendell, J. C. Burant, S. S. Iyengar, 
 J. Tomasi, M. Cossi, J. M. Millam, M. Klene, C. Adamo, R. Cammi, 
 J. W. Ochterski, R. L. Martin, K. Morokuma, O. Farkas, 
 J. B. Foresman, and D. J. Fox, Gaussian, Inc., Wallingford CT, 2016.
 
 ******************************************
 Gaussian 16:  EM64L-G16RevA.03 25-Dec-2016
                 6-Mar-2025 
 ******************************************
 %nproc=8
 Will use up to    8 processors via shared memory.
 %mem=4000MB
 --------------------------------------------------------------------
 #opt=(noeigen,calcfc,ts,recalc=5,maxcyc=200) freq B3LYP/SVP em=GD3BJ
 --------------------------------------------------------------------
 1/5=1,6=200,10=4,11=1,18=20,26=3,38=1,71=5/1,3;
 2/9=110,12=2,17=6,18=5,40=1/2;
 3/5=18,7=101,11=2,25=1,30=1,71=2,74=-5,124=41,140=1/1,2,3;
 4//1;
 5/5=2,38=5/2;
 8/6=4,10=90,11=11/1;
 11/6=1,8=1,9=11,15=111,16=1/1,2,10;
 10/6=1,13=1/2;
 6/7=2,8=2,9=2,10=2,28=1/1;
 7/10=1,18=20,25=1/1,2,3,16;
 1/5=1,6=200,10=4,11=1,18=20,26=3,71=5/3(2);
 2/9=110/2;
 99//99;
 2/9=110/2;
 3/5=18,7=101,11=2,25=1,30=1,71=1,74=-5,124=41/1,2,3;
 4/5=5,16=3,69=1/1;
 5/5=2,38=5/2;
 7//1,2,3,16;
 1/5=1,6=200,11=1,18=20,26=3,71=5/3(-5);
 2/9=110/2;
 6/7=2,8=2,9=2,10=2,19=2,28=1/1;
 99/9=1/99;
 -----------
 ts-1277.gjf
 -----------
 Symbolic Z-matrix:
 Charge =  0 Multiplicity = 1
 O                     2.5353   -4.56029   3.2304 
 Cl                    3.96611  -3.51229   3.31032 
 H                     2.45318  -4.53109   2.27142 
 

 GradGradGradGradGradGradGradGradGradGradGradGradGradGradGradGradGradGrad
 Berny optimization.
 Initialization pass.
                           ----------------------------
                           !    Initial Parameters    !
                           ! (Angstroms and Degrees)  !
 --------------------------                            --------------------------
 ! Name  Definition              Value          Derivative Info.                !
 --------------------------------------------------------------------------------
 ! R1    R(1,2)                  1.7754         calculate D2E/DX2 analytically  !
 ! R2    R(1,3)                  0.9629         calculate D2E/DX2 analytically  !
 ! A1    A(2,1,3)               95.4889         calculate D2E/DX2 analytically  !
 --------------------------------------------------------------------------------
 Trust Radius=3.00D-01 FncErr=1.00D-07 GrdErr=1.00D-06 EigMax=2.50D+02 EigMin=1.00D-04
 Number of steps in this run=    100 maximum allowed number of steps=    100.
 Search for a saddle point of order  1.
 GradGradGradGradGradGradGradGradGradGradGradGradGradGradGradGradGradGrad

                          Input orientation:                          
 ---------------------------------------------------------------------
 Center     Atomic      Atomic             Coordinates (Angstroms)
 Number     Number       Type             X           Y           Z
 ---------------------------------------------------------------------
      1          8           0        2.535297   -4.560292    3.230403
      2         17           0        3.966110   -3.512288    3.310321
      3          1           0        2.453182   -4.531087    2.271423
 ---------------------------------------------------------------------
                    Distance matrix (angstroms):
                    1          2          3
     1  O    0.000000
     2  Cl   1.775366   0.000000
     3  H    0.962932   2.099097   0.000000
 Stoichiometry    ClHO
 Framework group  CS[SG(ClHO)]
 Deg. of freedom     3
 Full point group                 CS      NOp   2
 Largest Abelian subgroup         CS      NOp   2
 Largest concise Abelian subgroup C1      NOp   1
                         Standard orientation:                         
 ---------------------------------------------------------------------
 Center     Atomic      Atomic             Coordinates (Angstroms)
 Number     Number       Type             X           Y           Z
 ---------------------------------------------------------------------
      1          8           0        0.036866    1.157274   -0.000000
      2         17           0        0.036866   -0.618092    0.000000
      3          1           0       -0.921651    1.249381   -0.000000
 ---------------------------------------------------------------------
 Rotational constants (GHZ):         584.5921810          13.9098911          13.5866089
 Standard basis: SVP (5D, 7F)
 There are    29 symmetry adapted cartesian basis functions of A'  symmetry.
 There are    10 symmetry adapted cartesian basis functions of A"  symmetry.
 There are    27 symmetry adapted basis functions of A'  symmetry.
 There are    10 symmetry adapted basis functions of A"  symmetry.
    37 basis functions,    69 primitive gaussians,    39 cartesian basis functions
    13 alpha electrons       13 beta electrons
       nuclear repulsion energy        49.2190900483 Hartrees.
 NAtoms=    3 NActive=    3 NUniq=    3 SFac= 1.00D+00 NAtFMM=   60 NAOKFM=F Big=F
 Integral buffers will be    131072 words long.
 Raffenetti 2 integral format.
 Two-electron integral symmetry is turned on.
 Nuclear repulsion after empirical dispersion term =       49.2174734495 Hartrees.
 One-electron integrals computed using PRISM.
 NBasis=    37 RedAO= T EigKep=  3.72D-02  NBF=    27    10
 NBsUse=    37 1.00D-06 EigRej= -1.00D+00 NBFU=    27    10
 ExpMin= 1.22D-01 ExpMax= 1.04D+04 ExpMxC= 1.57D+03 IAcc=3 IRadAn=         5 AccDes= 0.00D+00
 Harris functional with IExCor=  402 and IRadAn=       5 diagonalized for initial guess.
 HarFok:  IExCor=  402 AccDes= 0.00D+00 IRadAn=         5 IDoV= 1 UseB2=F ITyADJ=14
 ICtDFT=  3500011 ScaDFX=  1.000000  1.000000  1.000000  1.000000
 FoFCou: FMM=F IPFlag=           0 FMFlag=      100000 FMFlg1=           0
         NFxFlg=           0 DoJE=T BraDBF=F KetDBF=T FulRan=T
         wScrn=  0.000000 ICntrl=       500 IOpCl=  0 I1Cent=   200000004 NGrid=           0
         NMat0=    1 NMatS0=      1 NMatT0=    0 NMatD0=    1 NMtDS0=    0 NMtDT0=    0
 Petite list used in FoFCou.
 Initial guess orbital symmetries:
       Occupied  (A') (A') (A') (A') (A') (A") (A') (A') (A') (A')
                 (A") (A') (A")
       Virtual   (A') (A') (A') (A') (A') (A") (A') (A') (A") (A')
                 (A") (A') (A") (A') (A') (A') (A") (A') (A') (A")
                 (A') (A") (A') (A')
 The electronic state of the initial guess is 1-A'.
 Keep R1 ints in memory in symmetry-blocked form, NReq=7153137.
 Requested convergence on RMS density matrix=1.00D-08 within 128 cycles.
 Requested convergence on MAX density matrix=1.00D-06.
 Requested convergence on             energy=1.00D-06.
 No special actions if energy rises.
 Integral accuracy reduced to 1.0D-05 until final iterations.
 Initial convergence to 1.0D-05 achieved.  Increase integral accuracy.
 SCF Done:  E(RB3LYP) =  -535.758208861     A.U. after   12 cycles
            NFock= 12  Conv=0.56D-08     -V/T= 2.0026
 DoSCS=F DFT=T ScalE2(SS,OS)=  1.000000  1.000000
 Range of M.O.s used for correlation:     1    37
 NBasis=    37 NAE=    13 NBE=    13 NFC=     0 NFV=     0
 NROrb=     37 NOA=    13 NOB=    13 NVA=    24 NVB=    24
 Symmetrizing basis deriv contribution to polar:
 IMax=3 JMax=2 DiffMx= 0.00D+00
 G2DrvN: will do     4 centers at a time, making    1 passes.
 Calling FoFCou, ICntrl=  3107 FMM=F I1Cent=   0 AccDes= 0.00D+00.
 End of G2Drv F.D. properties file   721 does not exist.
 End of G2Drv F.D. properties file   722 does not exist.
 End of G2Drv F.D. properties file   788 does not exist.
          IDoAtm=111
          Differentiating once with respect to nuclear coordinates.
 Keep R1 ints in memory in symmetry-blocked form, NReq=7127942.
          There are    12 degrees of freedom in the 1st order CPHF.  IDoFFX=6 NUNeed=     0.
      6 vectors produced by pass  0 Test12= 2.60D-15 8.33D-09 XBig12= 7.61D-02 1.80D-01.
 AX will form     6 AO Fock derivatives at one time.
      6 vectors produced by pass  1 Test12= 2.60D-15 8.33D-09 XBig12= 2.71D-02 7.67D-02.
      6 vectors produced by pass  2 Test12= 2.60D-15 8.33D-09 XBig12= 8.89D-04 8.34D-03.
      6 vectors produced by pass  3 Test12= 2.60D-15 8.33D-09 XBig12= 2.79D-05 1.72D-03.
      6 vectors produced by pass  4 Test12= 2.60D-15 8.33D-09 XBig12= 2.39D-07 1.69D-04.
      6 vectors produced by pass  5 Test12= 2.60D-15 8.33D-09 XBig12= 9.58D-10 9.52D-06.
      3 vectors produced by pass  6 Test12= 2.60D-15 8.33D-09 XBig12= 1.51D-12 4.83D-07.
      1 vectors produced by pass  7 Test12= 2.60D-15 8.33D-09 XBig12= 1.68D-15 1.17D-08.
 InvSVY:  IOpt=1 It=  1 EMax= 2.22D-16
 Solved reduced A of dimension    40 with     6 vectors.
 End of Minotr F.D. properties file   721 does not exist.
 End of Minotr F.D. properties file   722 does not exist.
 End of Minotr F.D. properties file   788 does not exist.

 **********************************************************************

            Population analysis using the SCF density.

 **********************************************************************

 Orbital symmetries:
       Occupied  (A') (A') (A') (A') (A') (A") (A') (A') (A') (A')
                 (A") (A') (A")
       Virtual   (A') (A') (A') (A') (A') (A") (A') (A') (A") (A')
                 (A") (A') (A") (A') (A') (A') (A") (A') (A') (A")
                 (A') (A') (A") (A')
 The electronic state is 1-A'.
 Alpha  occ. eigenvalues -- -101.54201 -19.20215  -9.49355  -7.26682  -7.25074
 Alpha  occ. eigenvalues --   -7.25038  -1.03998  -0.79343  -0.51309  -0.43550
 Alpha  occ. eigenvalues --   -0.39320  -0.31888  -0.28577
 Alpha virt. eigenvalues --   -0.08934   0.06038   0.46177   0.56159   0.68576
 Alpha virt. eigenvalues --    0.69528   0.70577   0.75857   0.76075   0.83819
 Alpha virt. eigenvalues --    0.84311   0.93422   1.00007   1.01617   1.09922
 Alpha virt. eigenvalues --    1.36418   1.40534   1.52270   2.18213   2.60954
 Alpha virt. eigenvalues --    2.83896   2.92286   2.93462   3.65265
          Condensed to atoms (all electrons):
               1          2          3
     1  O    7.846824   0.126026   0.305043
     2  Cl   0.126026  16.823337  -0.021642
     3  H    0.305043  -0.021642   0.510985
 Mulliken charges:
               1
     1  O   -0.277893
     2  Cl   0.072279
     3  H    0.205614
 Sum of Mulliken charges =  -0.00000
 Mulliken charges with hydrogens summed into heavy atoms:
               1
     1  O   -0.072279
     2  Cl   0.072279
 APT charges:
               1
     1  O   -0.482615
     2  Cl   0.099332
     3  H    0.383283
 Sum of APT charges =  -0.00000
 APT charges with hydrogens summed into heavy atoms:
               1
     1  O   -0.099332
     2  Cl   0.099332
 Electronic spatial extent (au):  <R**2>=            108.6883
 Charge=             -0.0000 electrons
 Dipole moment (field-independent basis, Debye):
    X=             -1.6533    Y=             -0.0673    Z=             -0.0000  Tot=              1.6546
 Quadrupole moment (field-independent basis, Debye-Ang):
   XX=            -16.5183   YY=            -16.6507   ZZ=            -18.6218
   XY=             -2.3663   XZ=              0.0000   YZ=              0.0000
 Traceless Quadrupole moment (field-independent basis, Debye-Ang):
   XX=              0.7453   YY=              0.6129   ZZ=             -1.3582
   XY=             -2.3663   XZ=              0.0000   YZ=              0.0000
 Octapole moment (field-independent basis, Debye-Ang**2):
  XXX=             -2.1937  YYY=             -0.0085  ZZZ=              0.0000  XYY=             -3.2211
  XXY=              3.1690  XXZ=             -0.0000  XZZ=             -0.2483  YZZ=              0.6104
  YYZ=              0.0000  XYZ=              0.0000
 Hexadecapole moment (field-independent basis, Debye-Ang**3):
 XXXX=            -16.7886 YYYY=            -81.9728 ZZZZ=            -16.6455 XXXY=             -0.3908
 XXXZ=              0.0000 YYYX=             -2.5048 YYYZ=              0.0000 ZZZX=             -0.0000
 ZZZY=              0.0000 XXYY=            -15.6375 XXZZ=             -5.8698 YYZZ=            -18.4934
 XXYZ=              0.0000 YYXZ=              0.0000 ZZXY=              0.4859
 N-N= 4.921747344947D+01 E-N=-1.371381292622D+03  KE= 5.343448714141D+02
 Symmetry A'   KE= 4.835916465859D+02
 Symmetry A"   KE= 5.075322482818D+01
  Exact polarizability:   0.000   0.000   0.000   0.000   0.000   0.000
 Approx polarizability:  14.488  -0.889  39.821   0.000  -0.000  10.120
 Calling FoFJK, ICntrl=    100147 FMM=F ISym2X=1 I1Cent= 0 IOpClX= 0 NMat=1 NMatS=1 NMatT=0.
 ***** Axes restored to original set *****
 -------------------------------------------------------------------
 Center     Atomic                   Forces (Hartrees/Bohr)
 Number     Number              X              Y              Z
 -------------------------------------------------------------------
      1        8           0.020261463    0.014471867    0.005070164
      2       17          -0.011899805   -0.009189799    0.004395582
      3        1          -0.008361658   -0.005282068   -0.009465746
 -------------------------------------------------------------------
 Cartesian Forces:  Max     0.020261463 RMS     0.010946665
 FormGI is forming the generalized inverse of G from B-inverse, IUseBI=4.

 GradGradGradGradGradGradGradGradGradGradGradGradGradGradGradGradGradGrad
 Berny optimization.
 Internal  Forces:  Max     0.017052260 RMS     0.014258755
 Search for a saddle point.
 Step number   1 out of a maximum of  100
 All quantities printed in internal units (Hartrees-Bohrs-Radians)
 Swapping is turned off.
 Second derivative matrix not updated -- analytic derivatives used.
 The second derivative matrix:
                          R1        R2        A1
           R1           0.18599
           R2          -0.00994   0.54281
           A1           0.05956  -0.00125   0.19132
 ITU=  0
     Eigenvalues ---    0.12894   0.24807   0.54312
 Eigenvectors required to have negative eigenvalues:
                          R1        A1        R2
   1                   -0.72335   0.69031  -0.01530
 RFO step:  Lambda0=1.326999112D-01 Lambda=-2.16657366D-04.
 Linear search not attempted -- option 19 set.
 Iteration  1 RMS(Cart)=  0.01212765 RMS(Int)=  0.00004394
 Iteration  2 RMS(Cart)=  0.00005931 RMS(Int)=  0.00000000
 Iteration  3 RMS(Cart)=  0.00000000 RMS(Int)=  0.00000000
 ClnCor:  largest displacement from symmetrization is 1.26D-15 for atom     2.
 Variable       Old X    -DE/DX   Delta X   Delta X   Delta X     New X
                                 (Linear)    (Quad)   (Total)
    R1        3.35496  -0.01482   0.00000   0.02137   0.02137   3.37633
    R2        1.81968   0.00998   0.00000   0.01946   0.01946   1.83914
    A1        1.66660   0.01705   0.00000  -0.00785  -0.00785   1.65874
         Item               Value     Threshold  Converged?
 Maximum Force            0.017052     0.000450     NO 
 RMS     Force            0.014259     0.000300     NO 
 Maximum Displacement     0.010477     0.001800     NO 
 RMS     Displacement     0.012115     0.001200     NO 
 Predicted change in Energy= 3.936158D-04
 GradGradGradGradGradGradGradGradGradGradGradGradGradGradGradGradGradGrad

                          Input orientation:                          
 ---------------------------------------------------------------------
 Center     Atomic      Atomic             Coordinates (Angstroms)
 Number     Number       Type             X           Y           Z
 ---------------------------------------------------------------------
      1          8           0        2.531235   -4.563752    3.235352
      2         17           0        3.971117   -3.508650    3.310916
      3          1           0        2.452237   -4.531265    2.265879
 ---------------------------------------------------------------------
                    Distance matrix (angstroms):
                    1          2          3
     1  O    0.000000
     2  Cl   1.786676   0.000000
     3  H    0.973229   2.108279   0.000000
 Stoichiometry    ClHO
 Framework group  CS[SG(ClHO)]
 Deg. of freedom     3
 Full point group                 CS      NOp   2
 Largest Abelian subgroup         CS      NOp   2
 Largest concise Abelian subgroup C1      NOp   1
                         Standard orientation:                         
 ---------------------------------------------------------------------
 Center     Atomic      Atomic             Coordinates (Angstroms)
 Number     Number       Type             X           Y           Z
 ---------------------------------------------------------------------
      1          8           0        0.037287    1.164924   -0.000000
      2         17           0        0.037287   -0.621753    0.000000
      3          1           0       -0.932180    1.250405   -0.000000
 ---------------------------------------------------------------------
 Rotational constants (GHZ):         571.1689028          13.7413424          13.4185160
 Standard basis: SVP (5D, 7F)
 There are    29 symmetry adapted cartesian basis functions of A'  symmetry.
 There are    10 symmetry adapted cartesian basis functions of A"  symmetry.
 There are    27 symmetry adapted basis functions of A'  symmetry.
 There are    10 symmetry adapted basis functions of A"  symmetry.
    37 basis functions,    69 primitive gaussians,    39 cartesian basis functions
    13 alpha electrons       13 beta electrons
       nuclear repulsion energy        48.8972968271 Hartrees.
 NAtoms=    3 NActive=    3 NUniq=    3 SFac= 1.00D+00 NAtFMM=   60 NAOKFM=F Big=F
 Integral buffers will be    131072 words long.
 Raffenetti 2 integral format.
 Two-electron integral symmetry is turned on.
 Nuclear repulsion after empirical dispersion term =       48.8956809071 Hartrees.
 One-electron integrals computed using PRISM.
 NBasis=    37 RedAO= T EigKep=  3.81D-02  NBF=    27    10
 NBsUse=    37 1.00D-06 EigRej= -1.00D+00 NBFU=    27    10
 Initial guess from the checkpoint file:  "/tmp/Gau-19704.chk"
 B after Tr=    -0.000000    0.000000    0.000000
         Rot=    1.000000    0.000000   -0.000000   -0.000321 Ang=  -0.04 deg.
 Initial guess orbital symmetries:
       Occupied  (A') (A') (A') (A') (A') (A") (A') (A') (A') (A')
                 (A") (A') (A")
       Virtual   (A') (A') (A') (A') (A') (A") (A') (A') (A") (A')
                 (A") (A') (A") (A') (A') (A') (A") (A') (A') (A")
                 (A') (A') (A") (A')
 Keep R1 ints in memory in symmetry-blocked form, NReq=7153137.
 Requested convergence on RMS density matrix=1.00D-08 within 128 cycles.
 Requested convergence on MAX density matrix=1.00D-06.
 Requested convergence on             energy=1.00D-06.
 No special actions if energy rises.
 SCF Done:  E(RB3LYP) =  -535.757818316     A.U. after    8 cycles
            NFock=  8  Conv=0.87D-08     -V/T= 2.0027
 Calling FoFJK, ICntrl=      2127 FMM=F ISym2X=1 I1Cent= 0 IOpClX= 0 NMat=1 NMatS=1 NMatT=0.
 ***** Axes restored to original set *****
 -------------------------------------------------------------------
 Center     Atomic                   Forces (Hartrees/Bohr)
 Number     Number              X              Y              Z
 -------------------------------------------------------------------
      1        8           0.022021917    0.016693566   -0.004789265
      2       17          -0.014476573   -0.011085803    0.004343953
      3        1          -0.007545345   -0.005607763    0.000445313
 -------------------------------------------------------------------
 Cartesian Forces:  Max     0.022021917 RMS     0.011673763

 GradGradGradGradGradGradGradGradGradGradGradGradGradGradGradGradGradGrad
 Berny optimization.
 FormGI is forming the generalized inverse of G from B-inverse, IUseBI=4.
 Internal  Forces:  Max     0.018029762 RMS     0.014429702
 Search for a saddle point.
 Step number   2 out of a maximum of  100
 All quantities printed in internal units (Hartrees-Bohrs-Radians)
 Swapping is turned off.
 Update second derivatives using D2CorX and points    1    2
 The second derivative matrix:
                          R1        R2        A1
           R1           0.18536
           R2          -0.01463   0.52955
           A1           0.05918  -0.00085   0.19157
 ITU=  0  0
     Eigenvalues ---    0.12895   0.24733   0.53020
 Eigenvectors required to have negative eigenvalues:
                          R1        A1        R2
   1                   -0.72671   0.68649  -0.02508
 RFO step:  Lambda0=1.336201369D-01 Lambda=-8.83345703D-07.
 Linear search not attempted -- option 19 set.
 Iteration  1 RMS(Cart)=  0.00087104 RMS(Int)=  0.00000012
 Iteration  2 RMS(Cart)=  0.00000017 RMS(Int)=  0.00000000
 ClnCor:  largest displacement from symmetrization is 2.51D-15 for atom     3.
 Variable       Old X    -DE/DX   Delta X   Delta X   Delta X     New X
                                 (Linear)    (Quad)   (Total)
    R1        3.37633  -0.01803   0.00000   0.00162   0.00162   3.37795
    R2        1.83914  -0.00002   0.00000   0.00120   0.00120   1.84034
    A1        1.65874   0.01731   0.00000  -0.00035  -0.00035   1.65839
         Item               Value     Threshold  Converged?
 Maximum Force            0.018030     0.000450     NO 
 RMS     Force            0.014430     0.000300     NO 
 Maximum Displacement     0.000789     0.001800     YES
 RMS     Displacement     0.000871     0.001200     YES
 Predicted change in Energy= 3.592330D-05
 GradGradGradGradGradGradGradGradGradGradGradGradGradGradGradGradGradGrad

                          Input orientation:                          
 ---------------------------------------------------------------------
 Center     Atomic      Atomic             Coordinates (Angstroms)
 Number     Number       Type             X           Y           Z
 ---------------------------------------------------------------------
      1          8           0        2.530962   -4.563979    3.235625
      2         17           0        3.971534   -3.508351    3.311015
      3          1           0        2.452093   -4.531337    2.265507
 ---------------------------------------------------------------------
                    Distance matrix (angstroms):
                    1          2          3
     1  O    0.000000
     2  Cl   1.787536   0.000000
     3  H    0.973865   2.109097   0.000000
 Stoichiometry    ClHO
 Framework group  CS[SG(ClHO)]
 Deg. of freedom     3
 Full point group                 CS      NOp   2
 Largest Abelian subgroup         CS      NOp   2
 Largest concise Abelian subgroup C1      NOp   1
                         Standard orientation:                         
 ---------------------------------------------------------------------
 Center     Atomic      Atomic             Coordinates (Angstroms)
 Number     Number       Type             X           Y           Z
 ---------------------------------------------------------------------
      1          8           0        0.037313    1.165496   -0.000000
      2         17           0        0.037313   -0.622039    0.000000
      3          1           0       -0.932818    1.250695   -0.000000
 ---------------------------------------------------------------------
 Rotational constants (GHZ):         570.3745432          13.7284478          13.4057817
 Standard basis: SVP (5D, 7F)
 There are    29 symmetry adapted cartesian basis functions of A'  symmetry.
 There are    10 symmetry adapted cartesian basis functions of A"  symmetry.
 There are    27 symmetry adapted basis functions of A'  symmetry.
 There are    10 symmetry adapted basis functions of A"  symmetry.
    37 basis functions,    69 primitive gaussians,    39 cartesian basis functions
    13 alpha electrons       13 beta electrons
       nuclear repulsion energy        48.8734369400 Hartrees.
 NAtoms=    3 NActive=    3 NUniq=    3 SFac= 1.00D+00 NAtFMM=   60 NAOKFM=F Big=F
 Integral buffers will be    131072 words long.
 Raffenetti 2 integral format.
 Two-electron integral symmetry is turned on.
 Nuclear repulsion after empirical dispersion term =       48.8718210793 Hartrees.
 One-electron integrals computed using PRISM.
 NBasis=    37 RedAO= T EigKep=  3.81D-02  NBF=    27    10
 NBsUse=    37 1.00D-06 EigRej= -1.00D+00 NBFU=    27    10
 Initial guess from the checkpoint file:  "/tmp/Gau-19704.chk"
 B after Tr=     0.000000   -0.000000   -0.000000
         Rot=    1.000000   -0.000000    0.000000   -0.000014 Ang=  -0.00 deg.
 Initial guess orbital symmetries:
       Occupied  (A') (A') (A') (A') (A') (A") (A') (A') (A') (A')
                 (A") (A') (A")
       Virtual   (A') (A') (A') (A') (A') (A") (A') (A') (A") (A')
                 (A") (A') (A") (A') (A') (A') (A") (A') (A') (A")
                 (A') (A') (A") (A')
 Keep R1 ints in memory in symmetry-blocked form, NReq=7153137.
 Requested convergence on RMS density matrix=1.00D-08 within 128 cycles.
 Requested convergence on MAX density matrix=1.00D-06.
 Requested convergence on             energy=1.00D-06.
 No special actions if energy rises.
 SCF Done:  E(RB3LYP) =  -535.757782413     A.U. after    7 cycles
            NFock=  7  Conv=0.42D-08     -V/T= 2.0027
 Calling FoFJK, ICntrl=      2127 FMM=F ISym2X=1 I1Cent= 0 IOpClX= 0 NMat=1 NMatS=1 NMatT=0.
 ***** Axes restored to original set *****
 -------------------------------------------------------------------
 Center     Atomic                   Forces (Hartrees/Bohr)
 Number     Number              X              Y              Z
 -------------------------------------------------------------------
      1        8           0.022160745    0.016849091   -0.005356597
      2       17          -0.014679991   -0.011234077    0.004324898
      3        1          -0.007480755   -0.005615013    0.001031699
 -------------------------------------------------------------------
 Cartesian Forces:  Max     0.022160745 RMS     0.011797596

 GradGradGradGradGradGradGradGradGradGradGradGradGradGradGradGradGradGrad
 Berny optimization.
 FormGI is forming the generalized inverse of G from B-inverse, IUseBI=4.
 Internal  Forces:  Max     0.018282673 RMS     0.014528798
 Search for a saddle point.
 Step number   3 out of a maximum of  100
 All quantities printed in internal units (Hartrees-Bohrs-Radians)
 Swapping is turned off.
 Update second derivatives using D2CorX and points    1    2    3
 The second derivative matrix:
                          R1        R2        A1
           R1           0.18396
           R2          -0.02115   0.52056
           A1           0.05835  -0.00027   0.19202
 ITU=  0  0  0
     Eigenvalues ---    0.12891   0.24570   0.52194
 Eigenvectors required to have negative eigenvalues:
                          R1        A1        R2
   1                   -0.73382   0.67821  -0.03917
 RFO step:  Lambda0=1.336420189D-01 Lambda=-6.19138851D-07.
 Linear search not attempted -- option 19 set.
 Iteration  1 RMS(Cart)=  0.00093046 RMS(Int)=  0.00000002
 Iteration  2 RMS(Cart)=  0.00000002 RMS(Int)=  0.00000000
 ClnCor:  largest displacement from symmetrization is 3.66D-15 for atom     3.
 Variable       Old X    -DE/DX   Delta X   Delta X   Delta X     New X
                                 (Linear)    (Quad)   (Total)
    R1        3.37795  -0.01828   0.00000   0.00182   0.00182   3.37977
    R2        1.84034  -0.00061   0.00000   0.00081   0.00081   1.84115
    A1        1.65839   0.01728   0.00000  -0.00006  -0.00006   1.65833
         Item               Value     Threshold  Converged?
 Maximum Force            0.018283     0.000450     NO 
 RMS     Force            0.014529     0.000300     NO 
 Maximum Displacement     0.000966     0.001800     YES
 RMS     Displacement     0.000930     0.001200     YES
 Predicted change in Energy= 3.524529D-05
 GradGradGradGradGradGradGradGradGradGradGradGradGradGradGradGradGradGrad

                          Input orientation:                          
 ---------------------------------------------------------------------
 Center     Atomic      Atomic             Coordinates (Angstroms)
 Number     Number       Type             X           Y           Z
 ---------------------------------------------------------------------
      1          8           0        2.530697   -4.564186    3.235751
      2         17           0        3.972045   -3.507991    3.311191
      3          1           0        2.451846   -4.531490    2.265204
 ---------------------------------------------------------------------
                    Distance matrix (angstroms):
                    1          2          3
     1  O    0.000000
     2  Cl   1.788498   0.000000
     3  H    0.974294   2.110129   0.000000
 Stoichiometry    ClHO
 Framework group  CS[SG(ClHO)]
 Deg. of freedom     3
 Full point group                 CS      NOp   2
 Largest Abelian subgroup         CS      NOp   2
 Largest concise Abelian subgroup C1      NOp   1
                         Standard orientation:                         
 ---------------------------------------------------------------------
 Center     Atomic      Atomic             Coordinates (Angstroms)
 Number     Number       Type             X           Y           Z
 ---------------------------------------------------------------------
      1          8           0        0.037329    1.166126    0.000000
      2         17           0        0.037329   -0.622371   -0.000000
      3          1           0       -0.933234    1.251302    0.000000
 ---------------------------------------------------------------------
 Rotational constants (GHZ):         569.8638340          13.7137520          13.3914863
 Standard basis: SVP (5D, 7F)
 There are    29 symmetry adapted cartesian basis functions of A'  symmetry.
 There are    10 symmetry adapted cartesian basis functions of A"  symmetry.
 There are    27 symmetry adapted basis functions of A'  symmetry.
 There are    10 symmetry adapted basis functions of A"  symmetry.
    37 basis functions,    69 primitive gaussians,    39 cartesian basis functions
    13 alpha electrons       13 beta electrons
       nuclear repulsion energy        48.8477784429 Hartrees.
 NAtoms=    3 NActive=    3 NUniq=    3 SFac= 1.00D+00 NAtFMM=   60 NAOKFM=F Big=F
 Integral buffers will be    131072 words long.
 Raffenetti 2 integral format.
 Two-electron integral symmetry is turned on.
 Nuclear repulsion after empirical dispersion term =       48.8461626583 Hartrees.
 One-electron integrals computed using PRISM.
 NBasis=    37 RedAO= T EigKep=  3.82D-02  NBF=    27    10
 NBsUse=    37 1.00D-06 EigRej= -1.00D+00 NBFU=    27    10
 Initial guess from the checkpoint file:  "/tmp/Gau-19704.chk"
 B after Tr=    -0.000000    0.000000   -0.000000
         Rot=    1.000000    0.000000   -0.000000    0.000001 Ang=   0.00 deg.
 Initial guess orbital symmetries:
       Occupied  (A') (A') (A') (A') (A') (A") (A') (A') (A') (A')
                 (A") (A') (A")
       Virtual   (A') (A') (A') (A') (A') (A") (A') (A') (A") (A')
                 (A") (A') (A") (A') (A') (A') (A") (A') (A') (A")
                 (A') (A') (A") (A')
 Keep R1 ints in memory in symmetry-blocked form, NReq=7153137.
 Requested convergence on RMS density matrix=1.00D-08 within 128 cycles.
 Requested convergence on MAX density matrix=1.00D-06.
 Requested convergence on             energy=1.00D-06.
 No special actions if energy rises.
 SCF Done:  E(RB3LYP) =  -535.757747172     A.U. after    7 cycles
            NFock=  7  Conv=0.51D-08     -V/T= 2.0027
 Calling FoFJK, ICntrl=      2127 FMM=F ISym2X=1 I1Cent= 0 IOpClX= 0 NMat=1 NMatS=1 NMatT=0.
 ***** Axes restored to original set *****
 -------------------------------------------------------------------
 Center     Atomic                   Forces (Hartrees/Bohr)
 Number     Number              X              Y              Z
 -------------------------------------------------------------------
      1        8           0.022332291    0.017007666   -0.005698714
      2       17          -0.014926871   -0.011412152    0.004281699
      3        1          -0.007405420   -0.005595514    0.001417015
 -------------------------------------------------------------------
 Cartesian Forces:  Max     0.022332291 RMS     0.011925728

 GradGradGradGradGradGradGradGradGradGradGradGradGradGradGradGradGradGrad
 Berny optimization.
 FormGI is forming the generalized inverse of G from B-inverse, IUseBI=4.
 Internal  Forces:  Max     0.018588595 RMS     0.014628232
 Search for a saddle point.
 Step number   4 out of a maximum of  100
 All quantities printed in internal units (Hartrees-Bohrs-Radians)
 Swapping is turned off.
 Update second derivatives using D2CorX and points    1    2    3    4
 The second derivative matrix:
                          R1        R2        A1
           R1           0.17928
           R2          -0.02032   0.52717
           A1           0.05792  -0.00034   0.19206
 ITU=  0  0  0  0
     Eigenvalues ---    0.12684   0.24328   0.52839
 Eigenvectors required to have negative eigenvalues:
                          R1        A1        R2
   1                   -0.74728   0.66346  -0.03737
 RFO step:  Lambda0=1.317130121D-01 Lambda=-1.07436031D-06.
 Linear search not attempted -- option 19 set.
 Iteration  1 RMS(Cart)=  0.00142244 RMS(Int)=  0.00000011
 Iteration  2 RMS(Cart)=  0.00000014 RMS(Int)=  0.00000000
 ClnCor:  largest displacement from symmetrization is 1.26D-15 for atom     3.
 Variable       Old X    -DE/DX   Delta X   Delta X   Delta X     New X
                                 (Linear)    (Quad)   (Total)
    R1        3.37977  -0.01859   0.00000   0.00296   0.00296   3.38273
    R2        1.84115  -0.00100   0.00000   0.00003   0.00003   1.84118
    A1        1.65833   0.01719   0.00000   0.00018   0.00018   1.65851
         Item               Value     Threshold  Converged?
 Maximum Force            0.018589     0.000450     NO 
 RMS     Force            0.014628     0.000300     NO 
 Maximum Displacement     0.001576     0.001800     YES
 RMS     Displacement     0.001423     0.001200     NO 
 Predicted change in Energy= 5.282213D-05
 GradGradGradGradGradGradGradGradGradGradGradGradGradGradGradGradGradGrad

                          Input orientation:                          
 ---------------------------------------------------------------------
 Center     Atomic      Atomic             Coordinates (Angstroms)
 Number     Number       Type             X           Y           Z
 ---------------------------------------------------------------------
      1          8           0        2.530266   -4.564491    3.235608
      2         17           0        3.972879   -3.507404    3.311496
      3          1           0        2.451444   -4.531772    2.265042
 ---------------------------------------------------------------------
                    Distance matrix (angstroms):
                    1          2          3
     1  O    0.000000
     2  Cl   1.790063   0.000000
     3  H    0.974311   2.111673   0.000000
 Stoichiometry    ClHO
 Framework group  CS[SG(ClHO)]
 Deg. of freedom     3
 Full point group                 CS      NOp   2
 Largest Abelian subgroup         CS      NOp   2
 Largest concise Abelian subgroup C1      NOp   1
                         Standard orientation:                         
 ---------------------------------------------------------------------
 Center     Atomic      Atomic             Coordinates (Angstroms)
 Number     Number       Type             X           Y           Z
 ---------------------------------------------------------------------
      1          8           0        0.037329    1.167143    0.000000
      2         17           0        0.037329   -0.622920   -0.000000
      3          1           0       -0.933236    1.252491    0.000000
 ---------------------------------------------------------------------
 Rotational constants (GHZ):         569.8639126          13.6897120          13.3685620
 Standard basis: SVP (5D, 7F)
 There are    29 symmetry adapted cartesian basis functions of A'  symmetry.
 There are    10 symmetry adapted cartesian basis functions of A"  symmetry.
 There are    27 symmetry adapted basis functions of A'  symmetry.
 There are    10 symmetry adapted basis functions of A"  symmetry.
    37 basis functions,    69 primitive gaussians,    39 cartesian basis functions
    13 alpha electrons       13 beta electrons
       nuclear repulsion energy        48.8093977850 Hartrees.
 NAtoms=    3 NActive=    3 NUniq=    3 SFac= 1.00D+00 NAtFMM=   60 NAOKFM=F Big=F
 Integral buffers will be    131072 words long.
 Raffenetti 2 integral format.
 Two-electron integral symmetry is turned on.
 Nuclear repulsion after empirical dispersion term =       48.8077821236 Hartrees.
 One-electron integrals computed using PRISM.
 NBasis=    37 RedAO= T EigKep=  3.83D-02  NBF=    27    10
 NBsUse=    37 1.00D-06 EigRej= -1.00D+00 NBFU=    27    10
 Initial guess from the checkpoint file:  "/tmp/Gau-19704.chk"
 B after Tr=    -0.000000    0.000000    0.000000
         Rot=    1.000000   -0.000000   -0.000000    0.000029 Ang=   0.00 deg.
 Initial guess orbital symmetries:
       Occupied  (A') (A') (A') (A') (A') (A") (A') (A') (A') (A')
                 (A") (A') (A")
       Virtual   (A') (A') (A') (A') (A') (A") (A') (A') (A") (A')
                 (A") (A') (A") (A') (A') (A') (A") (A') (A') (A")
                 (A') (A') (A") (A')
 Keep R1 ints in memory in symmetry-blocked form, NReq=7153137.
 Requested convergence on RMS density matrix=1.00D-08 within 128 cycles.
 Requested convergence on MAX density matrix=1.00D-06.
 Requested convergence on             energy=1.00D-06.
 No special actions if energy rises.
 SCF Done:  E(RB3LYP) =  -535.757694375     A.U. after    7 cycles
            NFock=  7  Conv=0.67D-08     -V/T= 2.0027
 Calling FoFJK, ICntrl=      2127 FMM=F ISym2X=1 I1Cent= 0 IOpClX= 0 NMat=1 NMatS=1 NMatT=0.
 ***** Axes restored to original set *****
 -------------------------------------------------------------------
 Center     Atomic                   Forces (Hartrees/Bohr)
 Number     Number              X              Y              Z
 -------------------------------------------------------------------
      1        8           0.022666727    0.017244279   -0.005590890
      2       17          -0.015349389   -0.011715339    0.004190931
      3        1          -0.007317338   -0.005528940    0.001399959
 -------------------------------------------------------------------
 Cartesian Forces:  Max     0.022666727 RMS     0.012105522

 GradGradGradGradGradGradGradGradGradGradGradGradGradGradGradGradGradGrad
 Berny optimization.
 FormGI is forming the generalized inverse of G from B-inverse, IUseBI=4.
 Internal  Forces:  Max     0.019110902 RMS     0.014772077
 Search for a saddle point.
 Step number   5 out of a maximum of  100
 All quantities printed in internal units (Hartrees-Bohrs-Radians)
 Swapping is turned off.
 Update second derivatives using D2CorX and points    2    3    4    5
 The second derivative matrix:
                          R1        R2        A1
           R1           0.17326
           R2          -0.00982   0.53050
           A1           0.05768  -0.00014   0.19205
 ITU=  0  0  0  0
     Eigenvalues ---    0.12408   0.24095   0.53078
 Eigenvectors required to have negative eigenvalues:
                          R1        A1        R2
   1                   -0.76233   0.64693  -0.01820
 RFO step:  Lambda0=1.291455647D-01 Lambda=-1.89763870D-06.
 Linear search not attempted -- option 19 set.
 Iteration  1 RMS(Cart)=  0.00164620 RMS(Int)=  0.00000027
 Iteration  2 RMS(Cart)=  0.00000033 RMS(Int)=  0.00000000
 ClnCor:  largest displacement from symmetrization is 5.10D-15 for atom     1.
 Variable       Old X    -DE/DX   Delta X   Delta X   Delta X     New X
                                 (Linear)    (Quad)   (Total)
    R1        3.38273  -0.01911   0.00000   0.00353   0.00353   3.38626
    R2        1.84118  -0.00099   0.00000  -0.00091  -0.00091   1.84027
    A1        1.65851   0.01698   0.00000   0.00015   0.00015   1.65865
         Item               Value     Threshold  Converged?
 Maximum Force            0.019111     0.000450     NO 
 RMS     Force            0.014772     0.000300     NO 
 Maximum Displacement     0.001782     0.001800     YES
 RMS     Displacement     0.001646     0.001200     NO 
 Predicted change in Energy= 6.542409D-05
 GradGradGradGradGradGradGradGradGradGradGradGradGradGradGradGradGradGrad

                          Input orientation:                          
 ---------------------------------------------------------------------
 Center     Atomic      Atomic             Coordinates (Angstroms)
 Number     Number       Type             X           Y           Z
 ---------------------------------------------------------------------
      1          8           0        2.529697   -4.564874    3.235220
      2         17           0        3.973822   -3.506737    3.311803
      3          1           0        2.451069   -4.532056    2.265124
 ---------------------------------------------------------------------
                    Distance matrix (angstroms):
                    1          2          3
     1  O    0.000000
     2  Cl   1.791931   0.000000
     3  H    0.973830   2.113195   0.000000
 Stoichiometry    ClHO
 Framework group  CS[SG(ClHO)]
 Deg. of freedom     3
 Full point group                 CS      NOp   2
 Largest Abelian subgroup         CS      NOp   2
 Largest concise Abelian subgroup C1      NOp   1
                         Standard orientation:                         
 ---------------------------------------------------------------------
 Center     Atomic      Atomic             Coordinates (Angstroms)
 Number     Number       Type             X           Y           Z
 ---------------------------------------------------------------------
      1          8           0        0.037311    1.168361   -0.000000
      2         17           0        0.037311   -0.623570    0.000000
      3          1           0       -0.932764    1.253808   -0.000000
 ---------------------------------------------------------------------
 Rotational constants (GHZ):         570.4395569          13.6612290          13.3417137
 Standard basis: SVP (5D, 7F)
 There are    29 symmetry adapted cartesian basis functions of A'  symmetry.
 There are    10 symmetry adapted cartesian basis functions of A"  symmetry.
 There are    27 symmetry adapted basis functions of A'  symmetry.
 There are    10 symmetry adapted basis functions of A"  symmetry.
    37 basis functions,    69 primitive gaussians,    39 cartesian basis functions
    13 alpha electrons       13 beta electrons
       nuclear repulsion energy        48.7665664868 Hartrees.
 NAtoms=    3 NActive=    3 NUniq=    3 SFac= 1.00D+00 NAtFMM=   60 NAOKFM=F Big=F
 Integral buffers will be    131072 words long.
 Raffenetti 2 integral format.
 Two-electron integral symmetry is turned on.
 Nuclear repulsion after empirical dispersion term =       48.7649509600 Hartrees.
 One-electron integrals computed using PRISM.
 NBasis=    37 RedAO= T EigKep=  3.83D-02  NBF=    27    10
 NBsUse=    37 1.00D-06 EigRej= -1.00D+00 NBFU=    27    10
 Initial guess from the checkpoint file:  "/tmp/Gau-19704.chk"
 B after Tr=     0.000000    0.000000   -0.000000
         Rot=    1.000000   -0.000000    0.000000    0.000047 Ang=   0.01 deg.
 Initial guess orbital symmetries:
       Occupied  (A') (A') (A') (A') (A') (A") (A') (A') (A') (A')
                 (A") (A') (A")
       Virtual   (A') (A') (A') (A') (A') (A") (A') (A') (A") (A')
                 (A") (A') (A") (A') (A') (A') (A") (A') (A') (A")
                 (A') (A') (A") (A')
 Keep R1 ints in memory in symmetry-blocked form, NReq=7153137.
 Requested convergence on RMS density matrix=1.00D-08 within 128 cycles.
 Requested convergence on MAX density matrix=1.00D-06.
 Requested convergence on             energy=1.00D-06.
 No special actions if energy rises.
 SCF Done:  E(RB3LYP) =  -535.757628973     A.U. after    7 cycles
            NFock=  7  Conv=0.54D-08     -V/T= 2.0027
 Calling FoFJK, ICntrl=      2127 FMM=F ISym2X=1 I1Cent= 0 IOpClX= 0 NMat=1 NMatS=1 NMatT=0.
 ***** Axes restored to original set *****
 -------------------------------------------------------------------
 Center     Atomic                   Forces (Hartrees/Bohr)
 Number     Number              X              Y              Z
 -------------------------------------------------------------------
      1        8           0.023113307    0.017517329   -0.004988624
      2       17          -0.015853470   -0.012077202    0.004084239
      3        1          -0.007259837   -0.005440127    0.000904385
 -------------------------------------------------------------------
 Cartesian Forces:  Max     0.023113307 RMS     0.012306090

 GradGradGradGradGradGradGradGradGradGradGradGradGradGradGradGradGradGrad
 Berny optimization.
 FormGI is forming the generalized inverse of G from B-inverse, IUseBI=4.
 Internal  Forces:  Max     0.019733654 RMS     0.014947497
 Search for a saddle point.
 Step number   6 out of a maximum of  100
 All quantities printed in internal units (Hartrees-Bohrs-Radians)
 Swapping is turned off.
 Second derivative matrix not updated -- analytic derivatives used.
 The second derivative matrix:
                          R1        R2        A1
           R1           0.17326
           R2          -0.00982   0.53050
           A1           0.05768  -0.00014   0.19205
 ITU=  0  0  0  0
     Eigenvalues ---    0.12408   0.24095   0.53078
 Eigenvectors required to have negative eigenvalues:
                          R1        A1        R2
   1                   -0.76233   0.64693  -0.01820
 RFO step:  Lambda0=1.292665581D-01 Lambda= 0.00000000D+00.
 Linear search not attempted -- option 19 set.
 Iteration  1 RMS(Cart)=  0.00003039 RMS(Int)=  0.00000000
 Iteration  2 RMS(Cart)=  0.00000000 RMS(Int)=  0.00000000
 ClnCor:  largest displacement from symmetrization is 1.99D-15 for atom     3.
 Variable       Old X    -DE/DX   Delta X   Delta X   Delta X     New X
                                 (Linear)    (Quad)   (Total)
    R1        3.38626  -0.01973   0.00000   0.00005   0.00005   3.38631
    R2        1.84027  -0.00050   0.00000  -0.00005  -0.00005   1.84022
    A1        1.65865   0.01675   0.00000  -0.00002  -0.00002   1.65863
         Item               Value     Threshold  Converged?
 Maximum Force            0.019734     0.000450     NO 
 RMS     Force            0.014947     0.000300     NO 
 Maximum Displacement     0.000027     0.001800     YES
 RMS     Displacement     0.000030     0.001200     YES
 Predicted change in Energy= 1.341301D-06
 GradGradGradGradGradGradGradGradGradGradGradGradGradGradGradGradGradGrad

                          Input orientation:                          
 ---------------------------------------------------------------------
 Center     Atomic      Atomic             Coordinates (Angstroms)
 Number     Number       Type             X           Y           Z
 ---------------------------------------------------------------------
      1          8           0        2.529683   -4.564884    3.235209
      2         17           0        3.973830   -3.506731    3.311799
      3          1           0        2.451076   -4.532052    2.265138
 ---------------------------------------------------------------------
                    Distance matrix (angstroms):
                    1          2          3
     1  O    0.000000
     2  Cl   1.791957   0.000000
     3  H    0.973805   2.113187   0.000000
 Stoichiometry    ClHO
 Framework group  CS[SG(ClHO)]
 Deg. of freedom     3
 Full point group                 CS      NOp   2
 Largest Abelian subgroup         CS      NOp   2
 Largest concise Abelian subgroup C1      NOp   1
                         Standard orientation:                         
 ---------------------------------------------------------------------
 Center     Atomic      Atomic             Coordinates (Angstroms)
 Number     Number       Type             X           Y           Z
 ---------------------------------------------------------------------
      1          8           0        0.037310    1.168379   -0.000000
      2         17           0        0.037310   -0.623579    0.000000
      3          1           0       -0.932741    1.253803   -0.000000
 ---------------------------------------------------------------------
 Rotational constants (GHZ):         570.4663041          13.6608500          13.3413668
 Standard basis: SVP (5D, 7F)
 There are    29 symmetry adapted cartesian basis functions of A'  symmetry.
 There are    10 symmetry adapted cartesian basis functions of A"  symmetry.
 There are    27 symmetry adapted basis functions of A'  symmetry.
 There are    10 symmetry adapted basis functions of A"  symmetry.
    37 basis functions,    69 primitive gaussians,    39 cartesian basis functions
    13 alpha electrons       13 beta electrons
       nuclear repulsion energy        48.7661028030 Hartrees.
 NAtoms=    3 NActive=    3 NUniq=    3 SFac= 1.00D+00 NAtFMM=   60 NAOKFM=F Big=F
 Integral buffers will be    131072 words long.
 Raffenetti 2 integral format.
 Two-electron integral symmetry is turned on.
 Nuclear repulsion after empirical dispersion term =       48.7644872767 Hartrees.
 One-electron integrals computed using PRISM.
 NBasis=    37 RedAO= T EigKep=  3.83D-02  NBF=    27    10
 NBsUse=    37 1.00D-06 EigRej= -1.00D+00 NBFU=    27    10
 Initial guess from the checkpoint file:  "/tmp/Gau-19704.chk"
 B after Tr=     0.000000   -0.000000   -0.000000
         Rot=    1.000000    0.000000   -0.000000    0.000001 Ang=   0.00 deg.
 Initial guess orbital symmetries:
       Occupied  (A') (A') (A') (A') (A') (A") (A') (A') (A') (A')
                 (A") (A') (A")
       Virtual   (A') (A') (A') (A') (A') (A") (A') (A') (A") (A')
                 (A") (A') (A") (A') (A') (A') (A") (A') (A') (A")
                 (A') (A') (A") (A')
 Keep R1 ints in memory in symmetry-blocked form, NReq=7153137.
 Requested convergence on RMS density matrix=1.00D-08 within 128 cycles.
 Requested convergence on MAX density matrix=1.00D-06.
 Requested convergence on             energy=1.00D-06.
 No special actions if energy rises.
 SCF Done:  E(RB3LYP) =  -535.757627632     A.U. after    5 cycles
            NFock=  5  Conv=0.57D-08     -V/T= 2.0027
 Calling FoFJK, ICntrl=      2127 FMM=F ISym2X=1 I1Cent= 0 IOpClX= 0 NMat=1 NMatS=1 NMatT=0.
 ***** Axes restored to original set *****
 -------------------------------------------------------------------
 Center     Atomic                   Forces (Hartrees/Bohr)
 Number     Number              X              Y              Z
 -------------------------------------------------------------------
      1        8           0.023122341    0.017521644   -0.004963525
      2       17          -0.015859724   -0.012081807    0.004084145
      3        1          -0.007262618   -0.005439837    0.000879380
 -------------------------------------------------------------------
 Cartesian Forces:  Max     0.023122341 RMS     0.012308891

 GradGradGradGradGradGradGradGradGradGradGradGradGradGradGradGradGradGrad
 Berny optimization.
 FormGI is forming the generalized inverse of G from B-inverse, IUseBI=4.
 Internal  Forces:  Max     0.019741403 RMS     0.014951107
 Search for a saddle point.
 Step number   7 out of a maximum of  100
 All quantities printed in internal units (Hartrees-Bohrs-Radians)
 Swapping is turned off.
 Update second derivatives using D2CorX and points    4    5    7
 The second derivative matrix:
                          R1        R2        A1
           R1           0.17335
           R2          -0.00286   0.52777
           A1           0.05777   0.00013   0.19205
 ITU=  0  0  0  0
     Eigenvalues ---    0.12417   0.24122   0.52779
 Eigenvectors required to have negative eigenvalues:
                          R1        A1        R2
   1                   -0.76154   0.64809  -0.00560
 RFO step:  Lambda0=1.293494922D-01 Lambda=-2.09255223D-07.
 Linear search not attempted -- option 19 set.
 Iteration  1 RMS(Cart)=  0.00048963 RMS(Int)=  0.00000016
 Iteration  2 RMS(Cart)=  0.00000013 RMS(Int)=  0.00000000
 ClnCor:  largest displacement from symmetrization is 1.99D-15 for atom     3.
 Variable       Old X    -DE/DX   Delta X   Delta X   Delta X     New X
                                 (Linear)    (Quad)   (Total)
    R1        3.38631  -0.01974   0.00000   0.00039   0.00039   3.38670
    R2        1.84022  -0.00047   0.00000  -0.00062  -0.00062   1.83961
    A1        1.65863   0.01675   0.00000  -0.00053  -0.00053   1.65810
         Item               Value     Threshold  Converged?
 Maximum Force            0.019741     0.000450     NO 
 RMS     Force            0.014951     0.000300     NO 
 Maximum Displacement     0.000419     0.001800     YES
 RMS     Displacement     0.000490     0.001200     YES
 Predicted change in Energy= 1.650225D-05
 GradGradGradGradGradGradGradGradGradGradGradGradGradGradGradGradGradGrad

                          Input orientation:                          
 ---------------------------------------------------------------------
 Center     Atomic      Atomic             Coordinates (Angstroms)
 Number     Number       Type             X           Y           Z
 ---------------------------------------------------------------------
      1          8           0        2.529489   -4.565019    3.235127
      2         17           0        3.973801   -3.506739    3.311660
      3          1           0        2.451298   -4.531909    2.265359
 ---------------------------------------------------------------------
                    Distance matrix (angstroms):
                    1          2          3
     1  O    0.000000
     2  Cl   1.792164   0.000000
     3  H    0.973478   2.112756   0.000000
 Stoichiometry    ClHO
 Framework group  CS[SG(ClHO)]
 Deg. of freedom     3
 Full point group                 CS      NOp   2
 Largest Abelian subgroup         CS      NOp   2
 Largest concise Abelian subgroup C1      NOp   1
                         Standard orientation:                         
 ---------------------------------------------------------------------
 Center     Atomic      Atomic             Coordinates (Angstroms)
 Number     Number       Type             X           Y           Z
 ---------------------------------------------------------------------
      1          8           0        0.037299    1.168535   -0.000000
      2         17           0        0.037299   -0.623629    0.000000
      3          1           0       -0.932472    1.253412   -0.000000
 ---------------------------------------------------------------------
 Rotational constants (GHZ):         570.7725228          13.6582630          13.3390667
 Standard basis: SVP (5D, 7F)
 There are    29 symmetry adapted cartesian basis functions of A'  symmetry.
 There are    10 symmetry adapted cartesian basis functions of A"  symmetry.
 There are    27 symmetry adapted basis functions of A'  symmetry.
 There are    10 symmetry adapted basis functions of A"  symmetry.
    37 basis functions,    69 primitive gaussians,    39 cartesian basis functions
    13 alpha electrons       13 beta electrons
       nuclear repulsion energy        48.7638043244 Hartrees.
 NAtoms=    3 NActive=    3 NUniq=    3 SFac= 1.00D+00 NAtFMM=   60 NAOKFM=F Big=F
 Integral buffers will be    131072 words long.
 Raffenetti 2 integral format.
 Two-electron integral symmetry is turned on.
 Nuclear repulsion after empirical dispersion term =       48.7621887818 Hartrees.
 One-electron integrals computed using PRISM.
 NBasis=    37 RedAO= T EigKep=  3.83D-02  NBF=    27    10
 NBsUse=    37 1.00D-06 EigRej= -1.00D+00 NBFU=    27    10
 Initial guess from the checkpoint file:  "/tmp/Gau-19704.chk"
 B after Tr=    -0.000000    0.000000    0.000000
         Rot=    1.000000   -0.000000    0.000000   -0.000001 Ang=  -0.00 deg.
 Initial guess orbital symmetries:
       Occupied  (A') (A') (A') (A') (A') (A") (A') (A') (A') (A')
                 (A") (A') (A")
       Virtual   (A') (A') (A') (A') (A') (A") (A') (A') (A") (A')
                 (A") (A') (A") (A') (A') (A') (A") (A') (A') (A")
                 (A') (A') (A") (A')
 Keep R1 ints in memory in symmetry-blocked form, NReq=7153137.
 Requested convergence on RMS density matrix=1.00D-08 within 128 cycles.
 Requested convergence on MAX density matrix=1.00D-06.
 Requested convergence on             energy=1.00D-06.
 No special actions if energy rises.
 SCF Done:  E(RB3LYP) =  -535.757611133     A.U. after    7 cycles
            NFock=  7  Conv=0.41D-08     -V/T= 2.0027
 Calling FoFJK, ICntrl=      2127 FMM=F ISym2X=1 I1Cent= 0 IOpClX= 0 NMat=1 NMatS=1 NMatT=0.
 ***** Axes restored to original set *****
 -------------------------------------------------------------------
 Center     Atomic                   Forces (Hartrees/Bohr)
 Number     Number              X              Y              Z
 -------------------------------------------------------------------
      1        8           0.023217578    0.017564286   -0.004668585
      2       17          -0.015892974   -0.012108311    0.004105251
      3        1          -0.007324604   -0.005455975    0.000563334
 -------------------------------------------------------------------
 Cartesian Forces:  Max     0.023217578 RMS     0.012333971

 GradGradGradGradGradGradGradGradGradGradGradGradGradGradGradGradGradGrad
 Berny optimization.
 FormGI is forming the generalized inverse of G from B-inverse, IUseBI=4.
 Internal  Forces:  Max     0.019783128 RMS     0.014996150
 Search for a saddle point.
 Step number   8 out of a maximum of  100
 All quantities printed in internal units (Hartrees-Bohrs-Radians)
 Swapping is turned off.
 Update second derivatives using D2CorX and points    5    8
 The second derivative matrix:
                          R1        R2        A1
           R1           0.17512
           R2          -0.00058   0.52568
           A1           0.05830  -0.00038   0.19193
 ITU=  0  0  0  0
     Eigenvalues ---    0.12462   0.24242   0.52568
 Eigenvectors required to have negative eigenvalues:
                          R1        A1        R2
   1                   -0.75587   0.65473  -0.00046
 RFO step:  Lambda0=1.298180638D-01 Lambda=-2.61271593D-07.
 Linear search not attempted -- option 19 set.
 Iteration  1 RMS(Cart)=  0.00104012 RMS(Int)=  0.00000064
 Iteration  2 RMS(Cart)=  0.00000045 RMS(Int)=  0.00000000
 ClnCor:  largest displacement from symmetrization is 8.88D-16 for atom     1.
 Variable       Old X    -DE/DX   Delta X   Delta X   Delta X     New X
                                 (Linear)    (Quad)   (Total)
    R1        3.38670  -0.01978   0.00000   0.00013   0.00013   3.38683
    R2        1.83961  -0.00016   0.00000  -0.00028  -0.00028   1.83933
    A1        1.65810   0.01683   0.00000  -0.00137  -0.00137   1.65672
         Item               Value     Threshold  Converged?
 Maximum Force            0.019783     0.000450     NO 
 RMS     Force            0.014996     0.000300     NO 
 Maximum Displacement     0.001051     0.001800     YES
 RMS     Displacement     0.001040     0.001200     YES
 Predicted change in Energy= 2.574937D-05
 GradGradGradGradGradGradGradGradGradGradGradGradGradGradGradGradGradGrad

                          Input orientation:                          
 ---------------------------------------------------------------------
 Center     Atomic      Atomic             Coordinates (Angstroms)
 Number     Number       Type             X           Y           Z
 ---------------------------------------------------------------------
      1          8           0        2.529187   -4.565255    3.235263
      2         17           0        3.973548   -3.506891    3.311286
      3          1           0        2.451854   -4.531521    2.265597
 ---------------------------------------------------------------------
                    Distance matrix (angstroms):
                    1          2          3
     1  O    0.000000
     2  Cl   1.792231   0.000000
     3  H    0.973330   2.111607   0.000000
 Stoichiometry    ClHO
 Framework group  CS[SG(ClHO)]
 Deg. of freedom     3
 Full point group                 CS      NOp   2
 Largest Abelian subgroup         CS      NOp   2
 Largest concise Abelian subgroup C1      NOp   1
                         Standard orientation:                         
 ---------------------------------------------------------------------
 Center     Atomic      Atomic             Coordinates (Angstroms)
 Number     Number       Type             X           Y           Z
 ---------------------------------------------------------------------
      1          8           0        0.037298    1.168631    0.000000
      2         17           0        0.037298   -0.623601   -0.000000
      3          1           0       -0.932441    1.252164    0.000000
 ---------------------------------------------------------------------
 Rotational constants (GHZ):         570.7541079          13.6585648          13.3393445
 Standard basis: SVP (5D, 7F)
 There are    29 symmetry adapted cartesian basis functions of A'  symmetry.
 There are    10 symmetry adapted cartesian basis functions of A"  symmetry.
 There are    27 symmetry adapted basis functions of A'  symmetry.
 There are    10 symmetry adapted basis functions of A"  symmetry.
    37 basis functions,    69 primitive gaussians,    39 cartesian basis functions
    13 alpha electrons       13 beta electrons
       nuclear repulsion energy        48.7652746896 Hartrees.
 NAtoms=    3 NActive=    3 NUniq=    3 SFac= 1.00D+00 NAtFMM=   60 NAOKFM=F Big=F
 Integral buffers will be    131072 words long.
 Raffenetti 2 integral format.
 Two-electron integral symmetry is turned on.
 Nuclear repulsion after empirical dispersion term =       48.7636590854 Hartrees.
 One-electron integrals computed using PRISM.
 NBasis=    37 RedAO= T EigKep=  3.83D-02  NBF=    27    10
 NBsUse=    37 1.00D-06 EigRej= -1.00D+00 NBFU=    27    10
 Initial guess from the checkpoint file:  "/tmp/Gau-19704.chk"
 B after Tr=     0.000000   -0.000000    0.000000
         Rot=    1.000000   -0.000000    0.000000   -0.000029 Ang=  -0.00 deg.
 Initial guess orbital symmetries:
       Occupied  (A') (A') (A') (A') (A') (A") (A') (A') (A') (A')
                 (A") (A') (A")
       Virtual   (A') (A') (A') (A') (A') (A") (A') (A') (A") (A')
                 (A") (A') (A") (A') (A') (A') (A") (A') (A') (A")
                 (A') (A') (A") (A')
 Keep R1 ints in memory in symmetry-blocked form, NReq=7153137.
 Requested convergence on RMS density matrix=1.00D-08 within 128 cycles.
 Requested convergence on MAX density matrix=1.00D-06.
 Requested convergence on             energy=1.00D-06.
 No special actions if energy rises.
 SCF Done:  E(RB3LYP) =  -535.757585387     A.U. after    7 cycles
            NFock=  7  Conv=0.52D-08     -V/T= 2.0027
 Calling FoFJK, ICntrl=      2127 FMM=F ISym2X=1 I1Cent= 0 IOpClX= 0 NMat=1 NMatS=1 NMatT=0.
 ***** Axes restored to original set *****
 -------------------------------------------------------------------
 Center     Atomic                   Forces (Hartrees/Bohr)
 Number     Number              X              Y              Z
 -------------------------------------------------------------------
      1        8           0.023293833    0.017614692   -0.004606138
      2       17          -0.015846971   -0.012081998    0.004186672
      3        1          -0.007446862   -0.005532694    0.000419466
 -------------------------------------------------------------------
 Cartesian Forces:  Max     0.023293833 RMS     0.012360188

 GradGradGradGradGradGradGradGradGradGradGradGradGradGradGradGradGradGrad
 Berny optimization.
 FormGI is forming the generalized inverse of G from B-inverse, IUseBI=4.
 Internal  Forces:  Max     0.019728492 RMS     0.015065975
 Search for a saddle point.
 Step number   9 out of a maximum of  100
 All quantities printed in internal units (Hartrees-Bohrs-Radians)
 Swapping is turned off.
 Update second derivatives using D2CorX and points    6    7    8    9
 The second derivative matrix:
                          R1        R2        A1
           R1           0.17697
           R2          -0.00076   0.52162
           A1           0.05633  -0.00365   0.18822
 ITU=  0  0  0  0
     Eigenvalues ---    0.12597   0.23917   0.52167
 Eigenvectors required to have negative eigenvalues:
                          R1        A1        R2
   1                   -0.74132   0.67113   0.00476
 RFO step:  Lambda0=1.311611386D-01 Lambda=-1.44154407D-06.
 Linear search not attempted -- option 19 set.
 Iteration  1 RMS(Cart)=  0.00256790 RMS(Int)=  0.00000381
 Iteration  2 RMS(Cart)=  0.00000280 RMS(Int)=  0.00000000
 Iteration  3 RMS(Cart)=  0.00000000 RMS(Int)=  0.00000000
 ClnCor:  largest displacement from symmetrization is 3.08D-15 for atom     3.
 Variable       Old X    -DE/DX   Delta X   Delta X   Delta X     New X
                                 (Linear)    (Quad)   (Total)
    R1        3.38683  -0.01973   0.00000   0.00018   0.00018   3.38701
    R2        1.83933  -0.00002   0.00000  -0.00030  -0.00030   1.83903
    A1        1.65672   0.01708   0.00000  -0.00343  -0.00343   1.65329
         Item               Value     Threshold  Converged?
 Maximum Force            0.019728     0.000450     NO 
 RMS     Force            0.015066     0.000300     NO 
 Maximum Displacement     0.002594     0.001800     NO 
 RMS     Displacement     0.002569     0.001200     NO 
 Predicted change in Energy= 6.327851D-05
 GradGradGradGradGradGradGradGradGradGradGradGradGradGradGradGradGradGrad

                          Input orientation:                          
 ---------------------------------------------------------------------
 Center     Atomic      Atomic             Coordinates (Angstroms)
 Number     Number       Type             X           Y           Z
 ---------------------------------------------------------------------
      1          8           0        2.528469   -4.565825    3.235704
      2         17           0        3.972893   -3.507287    3.310357
      3          1           0        2.453227   -4.530554    2.266086
 ---------------------------------------------------------------------
                    Distance matrix (angstroms):
                    1          2          3
     1  O    0.000000
     2  Cl   1.792327   0.000000
     3  H    0.973172   2.108782   0.000000
 Stoichiometry    ClHO
 Framework group  CS[SG(ClHO)]
 Deg. of freedom     3
 Full point group                 CS      NOp   2
 Largest Abelian subgroup         CS      NOp   2
 Largest concise Abelian subgroup C1      NOp   1
                         Standard orientation:                         
 ---------------------------------------------------------------------
 Center     Atomic      Atomic             Coordinates (Angstroms)
 Number     Number       Type             X           Y           Z
 ---------------------------------------------------------------------
      1          8           0        0.037302    1.168822    0.000000
      2         17           0        0.037302   -0.623505   -0.000000
      3          1           0       -0.932560    1.249014    0.000000
 ---------------------------------------------------------------------
 Rotational constants (GHZ):         570.4717281          13.6603789          13.3409204
 Standard basis: SVP (5D, 7F)
 There are    29 symmetry adapted cartesian basis functions of A'  symmetry.
 There are    10 symmetry adapted cartesian basis functions of A"  symmetry.
 There are    27 symmetry adapted basis functions of A'  symmetry.
 There are    10 symmetry adapted basis functions of A"  symmetry.
    37 basis functions,    69 primitive gaussians,    39 cartesian basis functions
    13 alpha electrons       13 beta electrons
       nuclear repulsion energy        48.7695358556 Hartrees.
 NAtoms=    3 NActive=    3 NUniq=    3 SFac= 1.00D+00 NAtFMM=   60 NAOKFM=F Big=F
 Integral buffers will be    131072 words long.
 Raffenetti 2 integral format.
 Two-electron integral symmetry is turned on.
 Nuclear repulsion after empirical dispersion term =       48.7679200974 Hartrees.
 One-electron integrals computed using PRISM.
 NBasis=    37 RedAO= T EigKep=  3.83D-02  NBF=    27    10
 NBsUse=    37 1.00D-06 EigRej= -1.00D+00 NBFU=    27    10
 Initial guess from the checkpoint file:  "/tmp/Gau-19704.chk"
 B after Tr=     0.000000   -0.000000    0.000000
         Rot=    1.000000    0.000000   -0.000000   -0.000080 Ang=  -0.01 deg.
 Initial guess orbital symmetries:
       Occupied  (A') (A') (A') (A') (A') (A") (A') (A') (A') (A')
                 (A") (A') (A")
       Virtual   (A') (A') (A') (A') (A') (A") (A') (A') (A") (A')
                 (A") (A') (A") (A') (A') (A') (A") (A') (A') (A")
                 (A') (A') (A") (A')
 Keep R1 ints in memory in symmetry-blocked form, NReq=7153137.
 Requested convergence on RMS density matrix=1.00D-08 within 128 cycles.
 Requested convergence on MAX density matrix=1.00D-06.
 Requested convergence on             energy=1.00D-06.
 No special actions if energy rises.
 SCF Done:  E(RB3LYP) =  -535.757522106     A.U. after    8 cycles
            NFock=  8  Conv=0.21D-08     -V/T= 2.0027
 Calling FoFJK, ICntrl=      2127 FMM=F ISym2X=1 I1Cent= 0 IOpClX= 0 NMat=1 NMatS=1 NMatT=0.
 ***** Axes restored to original set *****
 -------------------------------------------------------------------
 Center     Atomic                   Forces (Hartrees/Bohr)
 Number     Number              X              Y              Z
 -------------------------------------------------------------------
      1        8           0.023447407    0.017732617   -0.004655654
      2       17          -0.015709085   -0.011999798    0.004395139
      3        1          -0.007738322   -0.005732818    0.000260515
 -------------------------------------------------------------------
 Cartesian Forces:  Max     0.023447407 RMS     0.012422221

 GradGradGradGradGradGradGradGradGradGradGradGradGradGradGradGradGradGrad
 Berny optimization.
 FormGI is forming the generalized inverse of G from B-inverse, IUseBI=4.
 Internal  Forces:  Max     0.019564021 RMS     0.015237888
 Search for a saddle point.
 Step number  10 out of a maximum of  100
 All quantities printed in internal units (Hartrees-Bohrs-Radians)
 Swapping is turned off.
 Update second derivatives using D2CorX and points    7    8    9   10
 The second derivative matrix:
                          R1        R2        A1
           R1           0.17681
           R2          -0.00072   0.52198
           A1           0.05735  -0.00201   0.18810
 ITU=  0  0  0  0
     Eigenvalues ---    0.12483   0.24007   0.52199
 Eigenvectors required to have negative eigenvalues:
                          R1        A1        R2
   1                   -0.74089   0.67162   0.00205
 RFO step:  Lambda0=1.301801492D-01 Lambda=-1.23203619D-08.
 Linear search not attempted -- option 19 set.
 Iteration  1 RMS(Cart)=  0.00010642 RMS(Int)=  0.00000001
 Iteration  2 RMS(Cart)=  0.00000001 RMS(Int)=  0.00000000
 ClnCor:  largest displacement from symmetrization is 2.81D-15 for atom     3.
 Variable       Old X    -DE/DX   Delta X   Delta X   Delta X     New X
                                 (Linear)    (Quad)   (Total)
    R1        3.38701  -0.01956   0.00000   0.00008   0.00008   3.38709
    R2        1.83903   0.00013   0.00000   0.00015   0.00015   1.83918
    A1        1.65329   0.01771   0.00000  -0.00015  -0.00015   1.65314
         Item               Value     Threshold  Converged?
 Maximum Force            0.019564     0.000450     NO 
 RMS     Force            0.015238     0.000300     NO 
 Maximum Displacement     0.000104     0.001800     YES
 RMS     Displacement     0.000106     0.001200     YES
 Predicted change in Energy= 4.214806D-06
 GradGradGradGradGradGradGradGradGradGradGradGradGradGradGradGradGradGrad

                          Input orientation:                          
 ---------------------------------------------------------------------
 Center     Atomic      Atomic             Coordinates (Angstroms)
 Number     Number       Type             X           Y           Z
 ---------------------------------------------------------------------
      1          8           0        2.528433   -4.565857    3.235759
      2         17           0        3.972889   -3.507287    3.310328
      3          1           0        2.453267   -4.530522    2.266059
 ---------------------------------------------------------------------
                    Distance matrix (angstroms):
                    1          2          3
     1  O    0.000000
     2  Cl   1.792368   0.000000
     3  H    0.973250   2.108734   0.000000
 Stoichiometry    ClHO
 Framework group  CS[SG(ClHO)]
 Deg. of freedom     3
 Full point group                 CS      NOp   2
 Largest Abelian subgroup         CS      NOp   2
 Largest concise Abelian subgroup C1      NOp   1
                         Standard orientation:                         
 ---------------------------------------------------------------------
 Center     Atomic      Atomic             Coordinates (Angstroms)
 Number     Number       Type             X           Y           Z
 ---------------------------------------------------------------------
      1          8           0        0.037306    1.168854    0.000000
      2         17           0        0.037306   -0.623514   -0.000000
      3          1           0       -0.932647    1.248905    0.000000
 ---------------------------------------------------------------------
 Rotational constants (GHZ):         570.3601243          13.6598917          13.3403947
 Standard basis: SVP (5D, 7F)
 There are    29 symmetry adapted cartesian basis functions of A'  symmetry.
 There are    10 symmetry adapted cartesian basis functions of A"  symmetry.
 There are    27 symmetry adapted basis functions of A'  symmetry.
 There are    10 symmetry adapted basis functions of A"  symmetry.
    37 basis functions,    69 primitive gaussians,    39 cartesian basis functions
    13 alpha electrons       13 beta electrons
       nuclear repulsion energy        48.7683652985 Hartrees.
 NAtoms=    3 NActive=    3 NUniq=    3 SFac= 1.00D+00 NAtFMM=   60 NAOKFM=F Big=F
 Integral buffers will be    131072 words long.
 Raffenetti 2 integral format.
 Two-electron integral symmetry is turned on.
 Nuclear repulsion after empirical dispersion term =       48.7667495378 Hartrees.
 One-electron integrals computed using PRISM.
 NBasis=    37 RedAO= T EigKep=  3.83D-02  NBF=    27    10
 NBsUse=    37 1.00D-06 EigRej= -1.00D+00 NBFU=    27    10
 Initial guess from the checkpoint file:  "/tmp/Gau-19704.chk"
 B after Tr=    -0.000000    0.000000   -0.000000
         Rot=    1.000000    0.000000    0.000000   -0.000005 Ang=  -0.00 deg.
 Initial guess orbital symmetries:
       Occupied  (A') (A') (A') (A') (A') (A") (A') (A') (A') (A')
                 (A") (A') (A")
       Virtual   (A') (A') (A') (A') (A') (A") (A') (A') (A") (A')
                 (A") (A') (A") (A') (A') (A') (A") (A') (A') (A")
                 (A') (A') (A") (A')
 Keep R1 ints in memory in symmetry-blocked form, NReq=7153137.
 Requested convergence on RMS density matrix=1.00D-08 within 128 cycles.
 Requested convergence on MAX density matrix=1.00D-06.
 Requested convergence on             energy=1.00D-06.
 No special actions if energy rises.
 SCF Done:  E(RB3LYP) =  -535.757517891     A.U. after    6 cycles
            NFock=  6  Conv=0.39D-08     -V/T= 2.0027
 Calling FoFJK, ICntrl=      2127 FMM=F ISym2X=1 I1Cent= 0 IOpClX= 0 NMat=1 NMatS=1 NMatT=0.
 ***** Axes restored to original set *****
 -------------------------------------------------------------------
 Center     Atomic                   Forces (Hartrees/Bohr)
 Number     Number              X              Y              Z
 -------------------------------------------------------------------
      1        8           0.023453920    0.017745012   -0.004736736
      2       17          -0.015711204   -0.012002100    0.004403022
      3        1          -0.007742716   -0.005742912    0.000333714
 -------------------------------------------------------------------
 Cartesian Forces:  Max     0.023453920 RMS     0.012430828

 GradGradGradGradGradGradGradGradGradGradGradGradGradGradGradGradGradGrad
 Berny optimization.
[...]
   1                   -0.74069   0.67185   0.00038
 RFO step:  Lambda0=1.296120889D-01 Lambda= 0.00000000D+00.
 Linear search not attempted -- option 19 set.
 Iteration  1 RMS(Cart)=  0.00000001 RMS(Int)=  0.00000000
 ClnCor:  largest displacement from symmetrization is 2.51D-15 for atom     3.
 Variable       Old X    -DE/DX   Delta X   Delta X   Delta X     New X
                                 (Linear)    (Quad)   (Total)
    R1        3.38715  -0.01957   0.00000   0.00000   0.00000   3.38715
    R2        1.83927   0.00001   0.00000   0.00000   0.00000   1.83927
    A1        1.65305   0.01775   0.00000  -0.00000  -0.00000   1.65305
         Item               Value     Threshold  Converged?
 Maximum Force            0.019572     0.000450     NO 
 RMS     Force            0.015256     0.000300     NO 
 Maximum Displacement     0.000000     0.001800     YES
 RMS     Displacement     0.000000     0.001200     YES
 Predicted change in Energy= 2.995893D-10
 GradGradGradGradGradGradGradGradGradGradGradGradGradGradGradGradGradGrad

                          Input orientation:                          
 ---------------------------------------------------------------------
 Center     Atomic      Atomic             Coordinates (Angstroms)
 Number     Number       Type             X           Y           Z
 ---------------------------------------------------------------------
      1          8           0        2.528409   -4.565878    3.235792
      2         17           0        3.972892   -3.507284    3.310313
      3          1           0        2.453288   -4.530505    2.266040
 ---------------------------------------------------------------------
                    Distance matrix (angstroms):
                    1          2          3
     1  O    0.000000
     2  Cl   1.792401   0.000000
     3  H    0.973300   2.108716   0.000000
 Stoichiometry    ClHO
 Framework group  CS[SG(ClHO)]
 Deg. of freedom     3
 Full point group                 CS      NOp   2
 Largest Abelian subgroup         CS      NOp   2
 Largest concise Abelian subgroup C1      NOp   1
                         Standard orientation:                         
 ---------------------------------------------------------------------
 Center     Atomic      Atomic             Coordinates (Angstroms)
 Number     Number       Type             X           Y           Z
 ---------------------------------------------------------------------
      1          8           0        0.037308    1.168879   -0.000000
      2         17           0        0.037308   -0.623522    0.000000
      3          1           0       -0.932702    1.248846   -0.000000
 ---------------------------------------------------------------------
 Rotational constants (GHZ):         570.2897102          13.6594710          13.3399549
 Standard basis: SVP (5D, 7F)
 There are    29 symmetry adapted cartesian basis functions of A'  symmetry.
 There are    10 symmetry adapted cartesian basis functions of A"  symmetry.
 There are    27 symmetry adapted basis functions of A'  symmetry.
 There are    10 symmetry adapted basis functions of A"  symmetry.
    37 basis functions,    69 primitive gaussians,    39 cartesian basis functions
    13 alpha electrons       13 beta electrons
       nuclear repulsion energy        48.7674407122 Hartrees.
 NAtoms=    3 NActive=    3 NUniq=    3 SFac= 1.00D+00 NAtFMM=   60 NAOKFM=F Big=F
 Integral buffers will be    131072 words long.
 Raffenetti 2 integral format.
 Two-electron integral symmetry is turned on.
 Nuclear repulsion after empirical dispersion term =       48.7658249509 Hartrees.
 One-electron integrals computed using PRISM.
 NBasis=    37 RedAO= T EigKep=  3.83D-02  NBF=    27    10
 NBsUse=    37 1.00D-06 EigRej= -1.00D+00 NBFU=    27    10
 Initial guess from the checkpoint file:  "/tmp/Gau-19704.chk"
 B after Tr=     0.000000    0.000000   -0.000000
         Rot=    1.000000    0.000000   -0.000000   -0.000000 Ang=   0.00 deg.
 Initial guess orbital symmetries:
       Occupied  (A') (A') (A') (A') (A') (A") (A') (A') (A') (A')
                 (A") (A') (A")
       Virtual   (A') (A') (A') (A') (A') (A") (A') (A') (A") (A')
                 (A") (A') (A") (A') (A') (A') (A") (A') (A') (A")
                 (A') (A') (A") (A')
 Keep R1 ints in memory in symmetry-blocked form, NReq=7153137.
 Requested convergence on RMS density matrix=1.00D-08 within 128 cycles.
 Requested convergence on MAX density matrix=1.00D-06.
 Requested convergence on             energy=1.00D-06.
 No special actions if energy rises.
 SCF Done:  E(RB3LYP) =  -535.757515086     A.U. after    1 cycles
            NFock=  1  Conv=0.20D-08     -V/T= 2.0027
 Calling FoFJK, ICntrl=      2127 FMM=F ISym2X=1 I1Cent= 0 IOpClX= 0 NMat=1 NMatS=1 NMatT=0.
 ***** Axes restored to original set *****
 -------------------------------------------------------------------
 Center     Atomic                   Forces (Hartrees/Bohr)
 Number     Number              X              Y              Z
 -------------------------------------------------------------------
      1        8           0.023459226    0.017753700   -0.004787724
      2       17          -0.015714692   -0.012005065    0.004407210
      3        1          -0.007744534   -0.005748635    0.000380514
 -------------------------------------------------------------------
 Cartesian Forces:  Max     0.023459226 RMS     0.012437030

 GradGradGradGradGradGradGradGradGradGradGradGradGradGradGradGradGradGrad
 Berny optimization.
 Internal  Forces:  Max     0.019571546 RMS     0.015255566
 Search for a saddle point.
 Step number  99 out of a maximum of  100
 All quantities printed in internal units (Hartrees-Bohrs-Radians)
 Swapping is turned off.
 Update second derivatives using D2CorX and points   99
 The second derivative matrix:
                          R1        R2        A1
           R1           0.17673
           R2          -0.00077   0.52205
           A1           0.05789  -0.00108   0.18805
 ITU=  0  0  0  0
     Eigenvalues ---    0.12423   0.24055   0.52206
 Eigenvectors required to have negative eigenvalues:
                          R1        A1        R2
   1                   -0.74069   0.67185   0.00038
 RFO step:  Lambda0=1.296120877D-01 Lambda= 0.00000000D+00.
 Linear search not attempted -- option 19 set.
 Iteration  1 RMS(Cart)=  0.00000002 RMS(Int)=  0.00000000
 ClnCor:  largest displacement from symmetrization is 3.32D-15 for atom     3.
 Variable       Old X    -DE/DX   Delta X   Delta X   Delta X     New X
                                 (Linear)    (Quad)   (Total)
    R1        3.38715  -0.01957   0.00000   0.00000   0.00000   3.38715
    R2        1.83927   0.00001   0.00000  -0.00000  -0.00000   1.83927
    A1        1.65305   0.01775   0.00000  -0.00000  -0.00000   1.65305
         Item               Value     Threshold  Converged?
 Maximum Force            0.019572     0.000450     NO 
 RMS     Force            0.015256     0.000300     NO 
 Maximum Displacement     0.000000     0.001800     YES
 RMS     Displacement     0.000000     0.001200     YES
 Predicted change in Energy= 7.067374D-10
 GradGradGradGradGradGradGradGradGradGradGradGradGradGradGradGradGradGrad

                          Input orientation:                          
 ---------------------------------------------------------------------
 Center     Atomic      Atomic             Coordinates (Angstroms)
 Number     Number       Type             X           Y           Z
 ---------------------------------------------------------------------
      1          8           0        2.528409   -4.565878    3.235792
      2         17           0        3.972892   -3.507284    3.310313
      3          1           0        2.453288   -4.530505    2.266040
 ---------------------------------------------------------------------
                    Distance matrix (angstroms):
                    1          2          3
     1  O    0.000000
     2  Cl   1.792401   0.000000
     3  H    0.973300   2.108716   0.000000
 Stoichiometry    ClHO
 Framework group  CS[SG(ClHO)]
 Deg. of freedom     3
 Full point group                 CS      NOp   2
 Largest Abelian subgroup         CS      NOp   2
 Largest concise Abelian subgroup C1      NOp   1
                         Standard orientation:                         
 ---------------------------------------------------------------------
 Center     Atomic      Atomic             Coordinates (Angstroms)
 Number     Number       Type             X           Y           Z
 ---------------------------------------------------------------------
      1          8           0        0.037308    1.168879   -0.000000
      2         17           0        0.037308   -0.623522    0.000000
      3          1           0       -0.932702    1.248846   -0.000000
 ---------------------------------------------------------------------
 Rotational constants (GHZ):         570.2897239          13.6594708          13.3399547
 Standard basis: SVP (5D, 7F)
 There are    29 symmetry adapted cartesian basis functions of A'  symmetry.
 There are    10 symmetry adapted cartesian basis functions of A"  symmetry.
 There are    27 symmetry adapted basis functions of A'  symmetry.
 There are    10 symmetry adapted basis functions of A"  symmetry.
    37 basis functions,    69 primitive gaussians,    39 cartesian basis functions
    13 alpha electrons       13 beta electrons
       nuclear repulsion energy        48.7674404456 Hartrees.
 NAtoms=    3 NActive=    3 NUniq=    3 SFac= 1.00D+00 NAtFMM=   60 NAOKFM=F Big=F
 Integral buffers will be    131072 words long.
 Raffenetti 2 integral format.
 Two-electron integral symmetry is turned on.
 Nuclear repulsion after empirical dispersion term =       48.7658246843 Hartrees.
 One-electron integrals computed using PRISM.
 NBasis=    37 RedAO= T EigKep=  3.83D-02  NBF=    27    10
 NBsUse=    37 1.00D-06 EigRej= -1.00D+00 NBFU=    27    10
 Initial guess from the checkpoint file:  "/tmp/Gau-19704.chk"
 B after Tr=    -0.000000    0.000000    0.000000
         Rot=    1.000000    0.000000   -0.000000    0.000000 Ang=   0.00 deg.
 Initial guess orbital symmetries:
       Occupied  (A') (A') (A') (A') (A') (A") (A') (A') (A') (A')
                 (A") (A') (A")
       Virtual   (A') (A') (A') (A') (A') (A") (A') (A') (A") (A')
                 (A") (A') (A") (A') (A') (A') (A") (A') (A') (A")
                 (A') (A') (A") (A')
 Keep R1 ints in memory in symmetry-blocked form, NReq=7153137.
 Requested convergence on RMS density matrix=1.00D-08 within 128 cycles.
 Requested convergence on MAX density matrix=1.00D-06.
 Requested convergence on             energy=1.00D-06.
 No special actions if energy rises.
 SCF Done:  E(RB3LYP) =  -535.757515086     A.U. after    1 cycles
            NFock=  1  Conv=0.43D-08     -V/T= 2.0027
 Calling FoFJK, ICntrl=      2127 FMM=F ISym2X=1 I1Cent= 0 IOpClX= 0 NMat=1 NMatS=1 NMatT=0.
 ***** Axes restored to original set *****
 -------------------------------------------------------------------
 Center     Atomic                   Forces (Hartrees/Bohr)
 Number     Number              X              Y              Z
 -------------------------------------------------------------------
      1        8           0.023459243    0.017753708   -0.004787684
      2       17          -0.015714706   -0.012005075    0.004407213
      3        1          -0.007744537   -0.005748633    0.000380472
 -------------------------------------------------------------------
 Cartesian Forces:  Max     0.023459243 RMS     0.012437037

 GradGradGradGradGradGradGradGradGradGradGradGradGradGradGradGradGradGrad
 Berny optimization.
 FormGI is forming the generalized inverse of G from B-inverse, IUseBI=4.
 Internal  Forces:  Max     0.019571562 RMS     0.015255574
 Search for a saddle point.
 Step number 100 out of a maximum of  100
 All quantities printed in internal units (Hartrees-Bohrs-Radians)
 Swapping is turned off.
 Update second derivatives using D2CorX and points  100
 The second derivative matrix:
                          R1        R2        A1
           R1           0.17673
           R2          -0.00077   0.52205
           A1           0.05789  -0.00108   0.18805
 ITU=  0  0  0  0
     Eigenvalues ---    0.12423   0.24055   0.52206
 Eigenvectors required to have negative eigenvalues:
                          R1        A1        R2
   1                   -0.74069   0.67185   0.00038
 RFO step:  Lambda0=1.296120930D-01 Lambda= 0.00000000D+00.
 Linear search not attempted -- option 19 set.
 Iteration  1 RMS(Cart)=  0.00000004 RMS(Int)=  0.00000000
 ClnCor:  largest displacement from symmetrization is 3.08D-15 for atom     3.
 Variable       Old X    -DE/DX   Delta X   Delta X   Delta X     New X
                                 (Linear)    (Quad)   (Total)
    R1        3.38715  -0.01957   0.00000   0.00000   0.00000   3.38715
    R2        1.83927   0.00001   0.00000   0.00000   0.00000   1.83927
    A1        1.65305   0.01775   0.00000  -0.00000  -0.00000   1.65305
         Item               Value     Threshold  Converged?
 Maximum Force            0.019572     0.000450     NO 
 RMS     Force            0.015256     0.000300     NO 
 Maximum Displacement     0.000000     0.001800     YES
 RMS     Displacement     0.000000     0.001200     YES
 Predicted change in Energy= 1.561268D-09
 Optimization stopped.
    -- Number of steps exceeded,  NStep= 100
    -- Flag reset to prevent archiving.
                           ----------------------------
                           ! Non-Optimized Parameters !
                           ! (Angstroms and Degrees)  !
 --------------------------                            --------------------------
 ! Name  Definition              Value          Derivative Info.                !
 --------------------------------------------------------------------------------
 ! R1    R(1,2)                  1.7924         -DE/DX =   -0.0196              !
 ! R2    R(1,3)                  0.9733         -DE/DX =    0.0                 !
 ! A1    A(2,1,3)               94.7128         -DE/DX =    0.0178              !
 --------------------------------------------------------------------------------
 GradGradGradGradGradGradGradGradGradGradGradGradGradGradGradGradGradGrad

                          Input orientation:                          
 ---------------------------------------------------------------------
 Center     Atomic      Atomic             Coordinates (Angstroms)
 Number     Number       Type             X           Y           Z
 ---------------------------------------------------------------------
      1          8           0        2.528409   -4.565878    3.235792
      2         17           0        3.972892   -3.507284    3.310313
      3          1           0        2.453288   -4.530505    2.266040
 ---------------------------------------------------------------------
                    Distance matrix (angstroms):
                    1          2          3
     1  O    0.000000
     2  Cl   1.792401   0.000000
     3  H    0.973300   2.108716   0.000000
 Stoichiometry    ClHO
 Framework group  CS[SG(ClHO)]
 Deg. of freedom     3
 Full point group                 CS      NOp   2
 Largest Abelian subgroup         CS      NOp   2
 Largest concise Abelian subgroup C1      NOp   1
                         Standard orientation:                         
 ---------------------------------------------------------------------
 Center     Atomic      Atomic             Coordinates (Angstroms)
 Number     Number       Type             X           Y           Z
 ---------------------------------------------------------------------
      1          8           0        0.037308    1.168879    0.000000
      2         17           0        0.037308   -0.623522   -0.000000
      3          1           0       -0.932702    1.248846    0.000000
 ---------------------------------------------------------------------
 Rotational constants (GHZ):         570.2897239          13.6594708          13.3399547

 **********************************************************************

            Population analysis using the SCF density.

 **********************************************************************

 Orbital symmetries:
       Occupied  (A') (A') (A') (A') (A') (A") (A') (A') (A') (A')
                 (A") (A') (A")
       Virtual   (A') (A') (A') (A') (A') (A") (A') (A') (A") (A')
                 (A") (A') (A") (A') (A') (A') (A") (A') (A') (A")
                 (A') (A') (A") (A')
 The electronic state is 1-A'.
 Alpha  occ. eigenvalues -- -101.54235 -19.20421  -9.49367  -7.26694  -7.25089
 Alpha  occ. eigenvalues --   -7.25054  -1.03449  -0.79350  -0.50927  -0.43451
 Alpha  occ. eigenvalues --   -0.39091  -0.31970  -0.28724
 Alpha virt. eigenvalues --   -0.09509   0.05718   0.46243   0.55594   0.68510
 Alpha virt. eigenvalues --    0.69529   0.70340   0.75880   0.76101   0.83744
 Alpha virt. eigenvalues --    0.84248   0.93156   0.99902   1.01235   1.09468
 Alpha virt. eigenvalues --    1.36918   1.40328   1.51721   2.15931   2.60727
 Alpha virt. eigenvalues --    2.82573   2.91242   2.92447   3.64074
          Condensed to atoms (all electrons):
               1          2          3
     1  O    7.849440   0.128456   0.300422
     2  Cl   0.128456  16.824446  -0.020873
     3  H    0.300422  -0.020873   0.510105
 Mulliken charges:
               1
     1  O   -0.278317
     2  Cl   0.067971
     3  H    0.210346
 Sum of Mulliken charges =  -0.00000
 Mulliken charges with hydrogens summed into heavy atoms:
               1
     1  O   -0.067971
     2  Cl   0.067971
 Electronic spatial extent (au):  <R**2>=            109.9531
 Charge=             -0.0000 electrons
 Dipole moment (field-independent basis, Debye):
    X=             -1.6618    Y=             -0.0741    Z=             -0.0000  Tot=              1.6634
 Quadrupole moment (field-independent basis, Debye-Ang):
   XX=            -16.5021   YY=            -16.6607   ZZ=            -18.6454
   XY=             -2.3686   XZ=             -0.0000   YZ=              0.0000
 Traceless Quadrupole moment (field-independent basis, Debye-Ang):
   XX=              0.7673   YY=              0.6087   ZZ=             -1.3760
   XY=             -2.3686   XZ=             -0.0000   YZ=              0.0000
 Octapole moment (field-independent basis, Debye-Ang**2):
  XXX=             -2.2341  YYY=             -0.0547  ZZZ=             -0.0000  XYY=             -3.2205
  XXY=              3.2036  XXZ=             -0.0000  XZZ=             -0.2430  YZZ=              0.5890
  YYZ=             -0.0000  XYZ=             -0.0000
 Hexadecapole moment (field-independent basis, Debye-Ang**3):
 XXXX=            -16.8228 YYYY=            -83.3080 ZZZZ=            -16.6732 XXXY=             -0.4016
 XXXZ=             -0.0000 YYYX=             -2.4459 YYYZ=              0.0000 ZZZX=             -0.0000
 ZZZY=              0.0000 XXYY=            -15.8356 XXZZ=             -5.8941 YYZZ=            -18.7450
 XXYZ=              0.0000 YYXZ=             -0.0000 ZZXY=              0.5043
 N-N= 4.876582468428D+01 E-N=-1.370459952106D+03  KE= 5.343079681914D+02
 Symmetry A'   KE= 4.835554534187D+02
 Symmetry A"   KE= 5.075251477267D+01


 THE TRULY SUCCESSFUL PERFORMANCE OF RESEARCHES IN
 INORGANIC CHEMISTRY IS POSSIBLE ONLY TO ONE WHO IS NOT
 ONLY A THEORETICAL CHEMIST, BUT ALSO AN ACCOMPLISHED
 ANALYST AND, MOREOVER, NOT MERELY A PRACTICALLY TRAINED,
 MECHANICAL WORKER, BUT A THINKING CREATIVE ARTIST.
   --  CLEMENS WINKLER, BER. 33, 1697(1900)
 Error termination request processed by link 9999.
 Error termination via Lnk1e in /share/apps/g16.a03/g16/l9999.exe at Thu Mar  6 16:39:50 2025.
 Job cpu time:       0 days  0 hours 13 minutes  4.6 seconds.
 Elapsed time:       0 days  0 hours  1 minutes 41.7 seconds.
 File lengths (MBytes):  RWF=      6 Int=      0 D2E=      0 Chk=      1 Scr=      1
