 Entering Gaussian System, Link 0=g16
 Input=ts.gjf
 Output=ts.log
 Initial command:
 /share/apps/g16.a03/g16/l1.exe "/tmp/Gau-29445.inp" -scrdir="/tmp/"
 Entering Link 1 = /share/apps/g16.a03/g16/l1.exe PID=     29447.
  
 Copyright (c) 1988,1990,1992,1993,1995,1998,2003,2009,2016,
            Gaussian, Inc.  All Rights Reserved.
  
 This is part of the Gaussian(R) 16 program.  It is based on
 the Gaussian(R) 09 system (copyright 2009, Gaussian, Inc.),
 the Gaussian(R) 03 system (copyright 2003, Gaussian, Inc.),
 the Gaussian(R) 98 system (copyright 1998, Gaussian, Inc.),
 the Gaussian(R) 94 system (copyright 1995, Gaussian, Inc.),
 the Gaussian 92(TM) system (copyright 1992, Gaussian, Inc.),
 the Gaussian 90(TM) system (copyright 1990, Gaussian, Inc.),
 the Gaussian 88(TM) system (copyright 1988, Gaussian, Inc.),
 the Gaussian 86(TM) system (copyright 1986, Carnegie Mellon
 University), and the Gaussian 82(TM) system (copyright 1983,
 Carnegie Mellon University). Gaussian is a federally registered
 trademark of Gaussian, Inc.
  
 This software contains proprietary and confidential information,
 including trade secrets, belonging to Gaussian, Inc.
  
 This software is provided under written license and may be
 used, copied, transmitted, or stored only in accord with that
 written license.
  
 The following legend is applicable only to US Government
 contracts under FAR:
  
                    RESTRICTED RIGHTS LEGEND
  
 Use, reproduction and disclosure by the US Government is
 subject to restrictions as set forth in subparagraphs (a)
 and (c) of the Commercial Computer Software - Restricted
 Rights clause in FAR 52.227-19.
  
 Gaussian, Inc.
 340 Quinnipiac St., Bldg. 40, Wallingford CT 06492
  
  
 ---------------------------------------------------------------
 Warning -- This program may not be used in any manner that
 competes with the business of Gaussian, Inc. or will provide
 assistance to any competitor of Gaussian, Inc.  The licensee
 of this program is prohibited from giving any competitor of
 Gaussian, Inc. access to this program.  By using this program,
 the user acknowledges that Gaussian, Inc. is engaged in the
 business of creating and licensing software in the field of
 computational chemistry and represents and warrants to the
 licensee that it is not a competitor of Gaussian, Inc. and that
 it will not use this program in any manner prohibited above.
 ---------------------------------------------------------------
  

 Cite this work as:
 Gaussian 16, Revision A.03,
 M. J. Frisch, G. W. Trucks, H. B. Schlegel, G. E. Scuseria, 
 M. A. Robb, J. R. Cheeseman, G. Scalmani, V. Barone, 
 G. A. Petersson, H. Nakatsuji, X. Li, M. Caricato, A. V. Marenich, 
 J. Bloino, B. G. Janesko, R. Gomperts, B. Mennucci, H. P. Hratchian, 
 J. V. Ortiz, A. F. Izmaylov, J. L. Sonnenberg, D. Williams-Young, 
 F. Ding, F. Lipparini, F. Egidi, J. Goings, B. Peng, A. Petrone, 
 T. Henderson, D. Ranasinghe, V. G. Zakrzewski, J. Gao, N. Rega, 
 G. Zheng, W. Liang, M. Hada, M. Ehara, K. Toyota, R. Fukuda, 
 J. Hasegawa, M. Ishida, T. Nakajima, Y. Honda, O. Kitao, H. Nakai, 
 T. Vreven, K. Throssell, J. A. Montgomery, Jr., J. E. Peralta, 
 F. Ogliaro, M. J. Bearpark, J. J. Heyd, E. N. Brothers, K. N. Kudin, 
 V. N. Staroverov, T. A. Keith, R. Kobayashi, J. Normand, 
 K. Raghavachari, A. P. Rendell, J. C. Burant, S. S. Iyengar, 
 J. Tomasi, M. Cossi, J. M. Millam, M. Klene, C. Adamo, R. Cammi, 
 J. W. Ochterski, R. L. Martin, K. Morokuma, O. Farkas, 
 J. B. Foresman, and D. J. Fox, Gaussian, Inc., Wallingford CT, 2016.
 
 ******************************************
 Gaussian 16:  EM64L-G16RevA.03 25-Dec-2016
                 6-Mar-2025 
 ******************************************
 %nproc=8
 Will use up to    8 processors via shared memory.
 %mem=4000MB
 --------------------------------------------------------------------
 #opt=(noeigen,calcfc,ts,recalc=5,maxcyc=200) freq B3LYP/SVP em=GD3BJ
 --------------------------------------------------------------------
 1/5=1,6=200,10=4,11=1,18=20,26=3,38=1,71=5/1,3;
 2/9=110,12=2,17=6,18=5,40=1/2;
 3/5=18,7=101,11=2,25=1,30=1,71=2,74=-5,124=41,140=1/1,2,3;
 4//1;
 5/5=2,38=5/2;
 8/6=4,10=90,11=11/1;
 11/6=1,8=1,9=11,15=111,16=1/1,2,10;
 10/6=1,13=1/2;
 6/7=2,8=2,9=2,10=2,28=1/1;
 7/10=1,18=20,25=1/1,2,3,16;
 1/5=1,6=200,10=4,11=1,18=20,26=3,71=5/3(2);
 2/9=110/2;
 99//99;
 2/9=110/2;
 3/5=18,7=101,11=2,25=1,30=1,71=1,74=-5,124=41/1,2,3;
 4/5=5,16=3,69=1/1;
 5/5=2,38=5/2;
 7//1,2,3,16;
 1/5=1,6=200,11=1,18=20,26=3,71=5/3(-5);
 2/9=110/2;
 6/7=2,8=2,9=2,10=2,19=2,28=1/1;
 99/9=1/99;
 -----------
 ts-1809.gjf
 -----------
 Symbolic Z-matrix:
 Charge =  0 Multiplicity = 1
 O                     3.69249  -4.17302   0.98097 
 Cl                    2.99075  -5.18182   2.1082 
 H                     3.40701  -3.31433   1.4093 
 

 GradGradGradGradGradGradGradGradGradGradGradGradGradGradGradGradGradGrad
 Berny optimization.
 Initialization pass.
                           ----------------------------
                           !    Initial Parameters    !
                           ! (Angstroms and Degrees)  !
 --------------------------                            --------------------------
 ! Name  Definition              Value          Derivative Info.                !
 --------------------------------------------------------------------------------
 ! R1    R(1,2)                  1.6676         calculate D2E/DX2 analytically  !
 ! R2    R(1,3)                  1.0011         calculate D2E/DX2 analytically  !
 ! A1    A(2,1,3)               96.2967         calculate D2E/DX2 analytically  !
 --------------------------------------------------------------------------------
 Trust Radius=3.00D-01 FncErr=1.00D-07 GrdErr=1.00D-06 EigMax=2.50D+02 EigMin=1.00D-04
 Number of steps in this run=    100 maximum allowed number of steps=    100.
 Search for a saddle point of order  1.
 GradGradGradGradGradGradGradGradGradGradGradGradGradGradGradGradGradGrad

                          Input orientation:                          
 ---------------------------------------------------------------------
 Center     Atomic      Atomic             Coordinates (Angstroms)
 Number     Number       Type             X           Y           Z
 ---------------------------------------------------------------------
      1          8           0        3.692485   -4.173024    0.980975
      2         17           0        2.990749   -5.181820    2.108202
      3          1           0        3.407014   -3.314335    1.409295
 ---------------------------------------------------------------------
                    Distance matrix (angstroms):
                    1          2          3
     1  O    0.000000
     2  Cl   1.667557   0.000000
     3  H    1.001149   2.036970   0.000000
 Stoichiometry    ClHO
 Framework group  CS[SG(ClHO)]
 Deg. of freedom     3
 Full point group                 CS      NOp   2
 Largest Abelian subgroup         CS      NOp   2
 Largest concise Abelian subgroup C1      NOp   1
                         Standard orientation:                         
 ---------------------------------------------------------------------
 Center     Atomic      Atomic             Coordinates (Angstroms)
 Number     Number       Type             X           Y           Z
 ---------------------------------------------------------------------
      1          8           0        0.038273    1.086103   -0.000000
      2         17           0        0.038273   -0.581454    0.000000
      3          1           0       -0.956836    1.195905   -0.000000
 ---------------------------------------------------------------------
 Rotational constants (GHZ):         543.5338781          15.7333954          15.2907811
 Standard basis: SVP (5D, 7F)
 There are    29 symmetry adapted cartesian basis functions of A'  symmetry.
 There are    10 symmetry adapted cartesian basis functions of A"  symmetry.
 There are    27 symmetry adapted basis functions of A'  symmetry.
 There are    10 symmetry adapted basis functions of A"  symmetry.
    37 basis functions,    69 primitive gaussians,    39 cartesian basis functions
    13 alpha electrons       13 beta electrons
       nuclear repulsion energy        51.8027335146 Hartrees.
 NAtoms=    3 NActive=    3 NUniq=    3 SFac= 1.00D+00 NAtFMM=   60 NAOKFM=F Big=F
 Integral buffers will be    131072 words long.
 Raffenetti 2 integral format.
 Two-electron integral symmetry is turned on.
 Nuclear repulsion after empirical dispersion term =       51.8011112166 Hartrees.
 One-electron integrals computed using PRISM.
 NBasis=    37 RedAO= T EigKep=  3.21D-02  NBF=    27    10
 NBsUse=    37 1.00D-06 EigRej= -1.00D+00 NBFU=    27    10
 ExpMin= 1.22D-01 ExpMax= 1.04D+04 ExpMxC= 1.57D+03 IAcc=3 IRadAn=         5 AccDes= 0.00D+00
 Harris functional with IExCor=  402 and IRadAn=       5 diagonalized for initial guess.
 HarFok:  IExCor=  402 AccDes= 0.00D+00 IRadAn=         5 IDoV= 1 UseB2=F ITyADJ=14
 ICtDFT=  3500011 ScaDFX=  1.000000  1.000000  1.000000  1.000000
 FoFCou: FMM=F IPFlag=           0 FMFlag=      100000 FMFlg1=           0
         NFxFlg=           0 DoJE=T BraDBF=F KetDBF=T FulRan=T
         wScrn=  0.000000 ICntrl=       500 IOpCl=  0 I1Cent=   200000004 NGrid=           0
         NMat0=    1 NMatS0=      1 NMatT0=    0 NMatD0=    1 NMtDS0=    0 NMtDT0=    0
 Petite list used in FoFCou.
 Initial guess orbital symmetries:
       Occupied  (A') (A') (A') (A') (A') (A") (A') (A') (A') (A')
                 (A") (A') (A")
       Virtual   (A') (A') (A') (A') (A') (A") (A') (A') (A") (A')
                 (A") (A') (A") (A') (A') (A') (A") (A') (A') (A")
                 (A") (A') (A') (A')
 The electronic state of the initial guess is 1-A'.
 Keep R1 ints in memory in symmetry-blocked form, NReq=7153137.
 Requested convergence on RMS density matrix=1.00D-08 within 128 cycles.
 Requested convergence on MAX density matrix=1.00D-06.
 Requested convergence on             energy=1.00D-06.
 No special actions if energy rises.
 Integral accuracy reduced to 1.0D-05 until final iterations.
 Initial convergence to 1.0D-05 achieved.  Increase integral accuracy.
 SCF Done:  E(RB3LYP) =  -535.756232283     A.U. after   11 cycles
            NFock= 11  Conv=0.97D-08     -V/T= 2.0024
 DoSCS=F DFT=T ScalE2(SS,OS)=  1.000000  1.000000
 Range of M.O.s used for correlation:     1    37
 NBasis=    37 NAE=    13 NBE=    13 NFC=     0 NFV=     0
 NROrb=     37 NOA=    13 NOB=    13 NVA=    24 NVB=    24
 Symmetrizing basis deriv contribution to polar:
 IMax=3 JMax=2 DiffMx= 0.00D+00
 G2DrvN: will do     4 centers at a time, making    1 passes.
 Calling FoFCou, ICntrl=  3107 FMM=F I1Cent=   0 AccDes= 0.00D+00.
 End of G2Drv F.D. properties file   721 does not exist.
 End of G2Drv F.D. properties file   722 does not exist.
 End of G2Drv F.D. properties file   788 does not exist.
          IDoAtm=111
          Differentiating once with respect to nuclear coordinates.
 Keep R1 ints in memory in symmetry-blocked form, NReq=7127949.
          There are    12 degrees of freedom in the 1st order CPHF.  IDoFFX=6 NUNeed=     0.
      6 vectors produced by pass  0 Test12= 2.60D-15 8.33D-09 XBig12= 7.89D-02 1.84D-01.
 AX will form     6 AO Fock derivatives at one time.
      6 vectors produced by pass  1 Test12= 2.60D-15 8.33D-09 XBig12= 1.66D-02 5.41D-02.
      6 vectors produced by pass  2 Test12= 2.60D-15 8.33D-09 XBig12= 5.98D-04 6.71D-03.
      6 vectors produced by pass  3 Test12= 2.60D-15 8.33D-09 XBig12= 2.02D-05 1.32D-03.
      6 vectors produced by pass  4 Test12= 2.60D-15 8.33D-09 XBig12= 2.21D-07 1.64D-04.
      6 vectors produced by pass  5 Test12= 2.60D-15 8.33D-09 XBig12= 8.96D-10 9.38D-06.
      3 vectors produced by pass  6 Test12= 2.60D-15 8.33D-09 XBig12= 3.19D-12 6.42D-07.
      1 vectors produced by pass  7 Test12= 2.60D-15 8.33D-09 XBig12= 6.15D-15 2.05D-08.
 InvSVY:  IOpt=1 It=  1 EMax= 3.33D-16
 Solved reduced A of dimension    40 with     6 vectors.
 End of Minotr F.D. properties file   721 does not exist.
 End of Minotr F.D. properties file   722 does not exist.
 End of Minotr F.D. properties file   788 does not exist.

 **********************************************************************

            Population analysis using the SCF density.

 **********************************************************************

 Orbital symmetries:
       Occupied  (A') (A') (A') (A') (A') (A") (A') (A') (A') (A')
                 (A") (A') (A")
       Virtual   (A') (A') (A') (A') (A') (A") (A') (A') (A") (A')
                 (A") (A') (A") (A') (A') (A') (A") (A') (A') (A")
                 (A') (A") (A') (A')
 The electronic state is 1-A'.
 Alpha  occ. eigenvalues -- -101.53631 -19.19683  -9.48966  -7.26280  -7.24665
 Alpha  occ. eigenvalues --   -7.24625  -1.06227  -0.78046  -0.52349  -0.44394
 Alpha  occ. eigenvalues --   -0.40788  -0.30884  -0.27258
 Alpha virt. eigenvalues --   -0.04912   0.05360   0.45666   0.53064   0.68481
 Alpha virt. eigenvalues --    0.70074   0.72642   0.75783   0.76030   0.84067
 Alpha virt. eigenvalues --    0.84642   0.93562   1.00087   1.03129   1.13676
 Alpha virt. eigenvalues --    1.34385   1.40167   1.54406   2.10327   2.63223
 Alpha virt. eigenvalues --    2.88529   2.89039   2.93914   3.60562
          Condensed to atoms (all electrons):
               1          2          3
     1  O    7.912103   0.092402   0.303008
     2  Cl   0.092402  16.850821  -0.030105
     3  H    0.303008  -0.030105   0.506466
 Mulliken charges:
               1
     1  O   -0.307513
     2  Cl   0.086882
     3  H    0.220631
 Sum of Mulliken charges =  -0.00000
 Mulliken charges with hydrogens summed into heavy atoms:
               1
     1  O   -0.086882
     2  Cl   0.086882
 APT charges:
               1
     1  O   -0.508370
     2  Cl   0.111275
     3  H    0.397096
 Sum of APT charges =   0.00000
 APT charges with hydrogens summed into heavy atoms:
               1
     1  O   -0.111275
     2  Cl   0.111275
 Electronic spatial extent (au):  <R**2>=            101.2643
 Charge=              0.0000 electrons
 Dipole moment (field-independent basis, Debye):
    X=             -1.6995    Y=             -0.0033    Z=              0.0000  Tot=              1.6995
 Quadrupole moment (field-independent basis, Debye-Ang):
   XX=            -16.3279   YY=            -16.9306   ZZ=            -18.5684
   XY=             -2.3287   XZ=              0.0000   YZ=              0.0000
 Traceless Quadrupole moment (field-independent basis, Debye-Ang):
   XX=              0.9477   YY=              0.3450   ZZ=             -1.2927
   XY=             -2.3287   XZ=              0.0000   YZ=              0.0000
 Octapole moment (field-independent basis, Debye-Ang**2):
  XXX=             -2.3862  YYY=             -0.3212  ZZZ=             -0.0000  XYY=             -3.0315
  XXY=              3.2393  XXZ=             -0.0000  XZZ=             -0.2350  YZZ=              0.6574
  YYZ=              0.0000  XYZ=              0.0000
 Hexadecapole moment (field-independent basis, Debye-Ang**3):
 XXXX=            -16.6776 YYYY=            -75.1027 ZZZZ=            -16.5942 XXXY=             -0.4870
 XXXZ=              0.0000 YYYX=             -2.0577 YYYZ=              0.0000 ZZZX=             -0.0000
 ZZZY=              0.0000 XXYY=            -14.3676 XXZZ=             -5.8933 YYZZ=            -17.0772
 XXYZ=              0.0000 YYXZ=              0.0000 ZZXY=              0.5154
 N-N= 5.180111121659D+01 E-N=-1.376671248998D+03  KE= 5.344710797666D+02
 Symmetry A'   KE= 4.837003402567D+02
 Symmetry A"   KE= 5.077073950988D+01
  Exact polarizability:   0.000   0.000   0.000   0.000   0.000   0.000
 Approx polarizability:  15.154  -0.972  31.831  -0.000  -0.000  10.271
 Calling FoFJK, ICntrl=    100147 FMM=F ISym2X=1 I1Cent= 0 IOpClX= 0 NMat=1 NMatS=1 NMatT=0.
 ***** Axes restored to original set *****
 -------------------------------------------------------------------
 Center     Atomic                   Forces (Hartrees/Bohr)
 Number     Number              X              Y              Z
 -------------------------------------------------------------------
      1        8          -0.002278057    0.043381323    0.002547468
      2       17          -0.011983514   -0.028711954    0.019523285
      3        1           0.014261571   -0.014669369   -0.022070753
 -------------------------------------------------------------------
 Cartesian Forces:  Max     0.043381323 RMS     0.021469510
 FormGI is forming the generalized inverse of G from B-inverse, IUseBI=4.

 GradGradGradGradGradGradGradGradGradGradGradGradGradGradGradGradGradGrad
 Berny optimization.
 Internal  Forces:  Max     0.035609735 RMS     0.030298700
 Search for a saddle point.
 Step number   1 out of a maximum of  100
 All quantities printed in internal units (Hartrees-Bohrs-Radians)
 Swapping is turned off.
 Second derivative matrix not updated -- analytic derivatives used.
 The second derivative matrix:
                          R1        R2        A1
           R1           0.32415
           R2          -0.00760   0.41067
           A1           0.07968  -0.00075   0.21398
 ITU=  0
     Eigenvalues ---    0.17216   0.36483   0.41180
 Eigenvectors required to have negative eigenvalues:
                          A1        R1        R2
   1                    0.88536  -0.46476  -0.01204
 RFO step:  Lambda0=1.726194992D-01 Lambda=-6.87771648D-03.
 Linear search not attempted -- option 19 set.
 Iteration  1 RMS(Cart)=  0.07425294 RMS(Int)=  0.00253012
 Iteration  2 RMS(Cart)=  0.00188796 RMS(Int)=  0.00000161
 Iteration  3 RMS(Cart)=  0.00000216 RMS(Int)=  0.00000000
 Iteration  4 RMS(Cart)=  0.00000000 RMS(Int)=  0.00000000
 ClnCor:  largest displacement from symmetrization is 2.82D-15 for atom     1.
 Variable       Old X    -DE/DX   Delta X   Delta X   Delta X     New X
                                 (Linear)    (Quad)   (Total)
    R1        3.15123   0.03561   0.00000   0.16744   0.16744   3.31866
    R2        1.89190  -0.02609   0.00000  -0.05861  -0.05861   1.83329
    A1        1.68069   0.02838   0.00000  -0.06335  -0.06335   1.61735
         Item               Value     Threshold  Converged?
 Maximum Force            0.035610     0.000450     NO 
 RMS     Force            0.030299     0.000300     NO 
 Maximum Displacement     0.072716     0.001800     NO 
 RMS     Displacement     0.074399     0.001200     NO 
 Predicted change in Energy=-7.889275D-04
 GradGradGradGradGradGradGradGradGradGradGradGradGradGradGradGradGradGrad

                          Input orientation:                          
 ---------------------------------------------------------------------
 Center     Atomic      Atomic             Coordinates (Angstroms)
 Number     Number       Type             X           Y           Z
 ---------------------------------------------------------------------
      1          8           0        3.711036   -4.134544    0.950894
      2         17           0        2.972616   -5.198378    2.137103
      3          1           0        3.406596   -3.336257    1.410475
 ---------------------------------------------------------------------
                    Distance matrix (angstroms):
                    1          2          3
     1  O    0.000000
     2  Cl   1.756160   0.000000
     3  H    0.970135   2.045439   0.000000
 Stoichiometry    ClHO
 Framework group  CS[SG(ClHO)]
 Deg. of freedom     3
 Full point group                 CS      NOp   2
 Largest Abelian subgroup         CS      NOp   2
 Largest concise Abelian subgroup C1      NOp   1
                         Standard orientation:                         
 ---------------------------------------------------------------------
 Center     Atomic      Atomic             Coordinates (Angstroms)
 Number     Number       Type             X           Y           Z
 ---------------------------------------------------------------------
      1          8           0        0.037272    1.146522    0.000000
      2         17           0        0.037272   -0.609638   -0.000000
      3          1           0       -0.931812    1.191667    0.000000
 ---------------------------------------------------------------------
 Rotational constants (GHZ):         570.0353170          14.2626056          13.9144580
 Standard basis: SVP (5D, 7F)
 There are    29 symmetry adapted cartesian basis functions of A'  symmetry.
 There are    10 symmetry adapted cartesian basis functions of A"  symmetry.
 There are    27 symmetry adapted basis functions of A'  symmetry.
 There are    10 symmetry adapted basis functions of A"  symmetry.
    37 basis functions,    69 primitive gaussians,    39 cartesian basis functions
    13 alpha electrons       13 beta electrons
       nuclear repulsion energy        49.7421907902 Hartrees.
 NAtoms=    3 NActive=    3 NUniq=    3 SFac= 1.00D+00 NAtFMM=   60 NAOKFM=F Big=F
 Integral buffers will be    131072 words long.
 Raffenetti 2 integral format.
 Two-electron integral symmetry is turned on.
 Nuclear repulsion after empirical dispersion term =       49.7405711235 Hartrees.
 One-electron integrals computed using PRISM.
 NBasis=    37 RedAO= T EigKep=  3.62D-02  NBF=    27    10
 NBsUse=    37 1.00D-06 EigRej= -1.00D+00 NBFU=    27    10
 Initial guess from the checkpoint file:  "/tmp/Gau-29447.chk"
 B after Tr=     0.000000    0.000000    0.000000
         Rot=    1.000000   -0.000000   -0.000000    0.000734 Ang=   0.08 deg.
 Initial guess orbital symmetries:
       Occupied  (A') (A') (A') (A') (A') (A") (A') (A') (A') (A')
                 (A") (A') (A")
       Virtual   (A') (A') (A') (A') (A') (A") (A') (A') (A") (A')
                 (A") (A') (A") (A') (A') (A') (A") (A') (A') (A")
                 (A') (A") (A') (A')
 ExpMin= 1.22D-01 ExpMax= 1.04D+04 ExpMxC= 1.57D+03 IAcc=2 IRadAn=         4 AccDes= 0.00D+00
 Harris functional with IExCor=  402 and IRadAn=       4 diagonalized for initial guess.
 HarFok:  IExCor=  402 AccDes= 0.00D+00 IRadAn=         4 IDoV= 1 UseB2=F ITyADJ=14
 ICtDFT=  3500011 ScaDFX=  1.000000  1.000000  1.000000  1.000000
 FoFCou: FMM=F IPFlag=           0 FMFlag=      100000 FMFlg1=           0
         NFxFlg=           0 DoJE=T BraDBF=F KetDBF=T FulRan=T
         wScrn=  0.000000 ICntrl=       500 IOpCl=  0 I1Cent=   200000004 NGrid=           0
         NMat0=    1 NMatS0=      1 NMatT0=    0 NMatD0=    1 NMtDS0=    0 NMtDT0=    0
 Petite list used in FoFCou.
 Keep R1 ints in memory in symmetry-blocked form, NReq=7153137.
 Requested convergence on RMS density matrix=1.00D-08 within 128 cycles.
 Requested convergence on MAX density matrix=1.00D-06.
 Requested convergence on             energy=1.00D-06.
 No special actions if energy rises.
 Integral accuracy reduced to 1.0D-05 until final iterations.
 Initial convergence to 1.0D-05 achieved.  Increase integral accuracy.
 SCF Done:  E(RB3LYP) =  -535.757511954     A.U. after   12 cycles
            NFock= 12  Conv=0.40D-08     -V/T= 2.0026
 Calling FoFJK, ICntrl=      2127 FMM=F ISym2X=1 I1Cent= 0 IOpClX= 0 NMat=1 NMatS=1 NMatT=0.
 ***** Axes restored to original set *****
 -------------------------------------------------------------------
 Center     Atomic                   Forces (Hartrees/Bohr)
 Number     Number              X              Y              Z
 -------------------------------------------------------------------
      1        8          -0.010880507   -0.006628285    0.017262992
      2       17           0.004733297   -0.004351821   -0.007337416
      3        1           0.006147210    0.010980105   -0.009925577
 -------------------------------------------------------------------
 Cartesian Forces:  Max     0.017262992 RMS     0.009500752

 GradGradGradGradGradGradGradGradGradGradGradGradGradGradGradGradGradGrad
 Berny optimization.
 FormGI is forming the generalized inverse of G from B-inverse, IUseBI=4.
 Internal  Forces:  Max     0.029048964 RMS     0.017011789
 Search for a saddle point.
 Step number   2 out of a maximum of  100
 All quantities printed in internal units (Hartrees-Bohrs-Radians)
 Swapping is turned off.
 Update second derivatives using D2CorX and points    1    2
 The second derivative matrix:
                          R1        R2        A1
           R1           0.26000
           R2          -0.02406   0.41355
           A1           0.07929   0.00365   0.21682
 ITU=  0  0
     Eigenvalues ---    0.15504   0.31767   0.41766
 Eigenvectors required to have negative eigenvalues:
                          A1        R1        R2
   1                    0.78850  -0.61127  -0.06801
 RFO step:  Lambda0=1.590886181D-01 Lambda=-7.02384330D-04.
 Linear search not attempted -- option 19 set.
 Iteration  1 RMS(Cart)=  0.02834630 RMS(Int)=  0.00005577
 Iteration  2 RMS(Cart)=  0.00006413 RMS(Int)=  0.00000000
 Iteration  3 RMS(Cart)=  0.00000000 RMS(Int)=  0.00000000
 ClnCor:  largest displacement from symmetrization is 2.70D-15 for atom     3.
 Variable       Old X    -DE/DX   Delta X   Delta X   Delta X     New X
                                 (Linear)    (Quad)   (Total)
    R1        3.31866  -0.00431   0.00000   0.06408   0.06408   3.38274
    R2        1.83329   0.00240   0.00000   0.01497   0.01497   1.84826
    A1        1.61735   0.02905   0.00000  -0.00854  -0.00854   1.60881
         Item               Value     Threshold  Converged?
 Maximum Force            0.029049     0.000450     NO 
 RMS     Force            0.017012     0.000300     NO 
 Maximum Displacement     0.027346     0.001800     NO 
 RMS     Displacement     0.028325     0.001200     NO 
 Predicted change in Energy= 1.009346D-03
 GradGradGradGradGradGradGradGradGradGradGradGradGradGradGradGradGradGrad

                          Input orientation:                          
 ---------------------------------------------------------------------
 Center     Atomic      Atomic             Coordinates (Angstroms)
 Number     Number       Type             X           Y           Z
 ---------------------------------------------------------------------
      1          8           0        3.717811   -4.128108    0.940090
      2         17           0        2.965287   -5.212849    2.148970
      3          1           0        3.407150   -3.328222    1.409412
 ---------------------------------------------------------------------
                    Distance matrix (angstroms):
                    1          2          3
     1  O    0.000000
     2  Cl   1.790069   0.000000
     3  H    0.978055   2.072199   0.000000
 Stoichiometry    ClHO
 Framework group  CS[SG(ClHO)]
 Deg. of freedom     3
 Full point group                 CS      NOp   2
 Largest Abelian subgroup         CS      NOp   2
 Largest concise Abelian subgroup C1      NOp   1
                         Standard orientation:                         
 ---------------------------------------------------------------------
 Center     Atomic      Atomic             Coordinates (Angstroms)
 Number     Number       Type             X           Y           Z
 ---------------------------------------------------------------------
      1          8           0        0.037590    1.169000    0.000000
      2         17           0        0.037590   -0.621069   -0.000000
      3          1           0       -0.939758    1.206169    0.000000
 ---------------------------------------------------------------------
 Rotational constants (GHZ):         560.0751684          13.7362175          13.4073922
 Standard basis: SVP (5D, 7F)
 There are    29 symmetry adapted cartesian basis functions of A'  symmetry.
 There are    10 symmetry adapted cartesian basis functions of A"  symmetry.
 There are    27 symmetry adapted basis functions of A'  symmetry.
 There are    10 symmetry adapted basis functions of A"  symmetry.
    37 basis functions,    69 primitive gaussians,    39 cartesian basis functions
    13 alpha electrons       13 beta electrons
       nuclear repulsion energy        48.8737781808 Hartrees.
 NAtoms=    3 NActive=    3 NUniq=    3 SFac= 1.00D+00 NAtFMM=   60 NAOKFM=F Big=F
 Integral buffers will be    131072 words long.
 Raffenetti 2 integral format.
 Two-electron integral symmetry is turned on.
 Nuclear repulsion after empirical dispersion term =       48.8721604398 Hartrees.
 One-electron integrals computed using PRISM.
 NBasis=    37 RedAO= T EigKep=  3.82D-02  NBF=    27    10
 NBsUse=    37 1.00D-06 EigRej= -1.00D+00 NBFU=    27    10
 Initial guess from the checkpoint file:  "/tmp/Gau-29447.chk"
 B after Tr=     0.000000   -0.000000   -0.000000
         Rot=    1.000000    0.000000   -0.000000    0.000108 Ang=   0.01 deg.
 Initial guess orbital symmetries:
       Occupied  (A') (A') (A') (A') (A') (A") (A') (A') (A') (A')
                 (A") (A') (A")
       Virtual   (A') (A') (A') (A') (A') (A") (A') (A') (A") (A')
                 (A") (A') (A") (A') (A') (A') (A") (A') (A') (A")
                 (A') (A') (A") (A')
 ExpMin= 1.22D-01 ExpMax= 1.04D+04 ExpMxC= 1.57D+03 IAcc=2 IRadAn=         4 AccDes= 0.00D+00
 Harris functional with IExCor=  402 and IRadAn=       4 diagonalized for initial guess.
 HarFok:  IExCor=  402 AccDes= 0.00D+00 IRadAn=         4 IDoV= 1 UseB2=F ITyADJ=14
 ICtDFT=  3500011 ScaDFX=  1.000000  1.000000  1.000000  1.000000
 FoFCou: FMM=F IPFlag=           0 FMFlag=      100000 FMFlg1=           0
         NFxFlg=           0 DoJE=T BraDBF=F KetDBF=T FulRan=T
         wScrn=  0.000000 ICntrl=       500 IOpCl=  0 I1Cent=   200000004 NGrid=           0
         NMat0=    1 NMatS0=      1 NMatT0=    0 NMatD0=    1 NMtDS0=    0 NMtDT0=    0
 Petite list used in FoFCou.
 Keep R1 ints in memory in symmetry-blocked form, NReq=7153137.
 Requested convergence on RMS density matrix=1.00D-08 within 128 cycles.
 Requested convergence on MAX density matrix=1.00D-06.
 Requested convergence on             energy=1.00D-06.
 No special actions if energy rises.
 Integral accuracy reduced to 1.0D-05 until final iterations.
 Initial convergence to 1.0D-05 achieved.  Increase integral accuracy.
 SCF Done:  E(RB3LYP) =  -535.756596147     A.U. after   11 cycles
            NFock= 11  Conv=0.28D-08     -V/T= 2.0027
 Calling FoFJK, ICntrl=      2127 FMM=F ISym2X=1 I1Cent= 0 IOpClX= 0 NMat=1 NMatS=1 NMatT=0.
 ***** Axes restored to original set *****
 -------------------------------------------------------------------
 Center     Atomic                   Forces (Hartrees/Bohr)
 Number     Number              X              Y              Z
 -------------------------------------------------------------------
      1        8          -0.016973816   -0.008032984    0.026875641
      2       17           0.009346247    0.003492409   -0.014776282
      3        1           0.007627569    0.004540574   -0.012099359
 -------------------------------------------------------------------
 Cartesian Forces:  Max     0.026875641 RMS     0.013408199

 GradGradGradGradGradGradGradGradGradGradGradGradGradGradGradGradGradGrad
 Berny optimization.
 FormGI is forming the generalized inverse of G from B-inverse, IUseBI=4.
 Internal  Forces:  Max     0.026448985 RMS     0.018043614
 Search for a saddle point.
 Step number   3 out of a maximum of  100
 All quantities printed in internal units (Hartrees-Bohrs-Radians)
 Swapping is turned off.
 Update second derivatives using D2CorX and points    1    2    3
 The second derivative matrix:
                          R1        R2        A1
           R1           0.18882
           R2           0.01349   0.40676
           A1           0.06871   0.00386   0.21789
 ITU=  0  0  0
     Eigenvalues ---    0.13289   0.27260   0.40797
 Eigenvectors required to have negative eigenvalues:
                          R1        A1        R2
   1                   -0.77803   0.62753   0.02948
 RFO step:  Lambda0=1.389114354D-01 Lambda=-4.87290273D-04.
 Linear search not attempted -- option 19 set.
 Iteration  1 RMS(Cart)=  0.02726942 RMS(Int)=  0.00007103
 Iteration  2 RMS(Cart)=  0.00008714 RMS(Int)=  0.00000000
 Iteration  3 RMS(Cart)=  0.00000000 RMS(Int)=  0.00000000
 ClnCor:  largest displacement from symmetrization is 4.00D-15 for atom     3.
 Variable       Old X    -DE/DX   Delta X   Delta X   Delta X     New X
                                 (Linear)    (Quad)   (Total)
    R1        3.38274  -0.01602   0.00000   0.05648   0.05648   3.43922
    R2        1.84826  -0.00451   0.00000  -0.01550  -0.01550   1.83276
    A1        1.60881   0.02645   0.00000   0.00456   0.00456   1.61337
         Item               Value     Threshold  Converged?
 Maximum Force            0.026449     0.000450     NO 
 RMS     Force            0.018044     0.000300     NO 
 Maximum Displacement     0.029262     0.001800     NO 
 RMS     Displacement     0.027308     0.001200     NO 
 Predicted change in Energy= 1.072349D-03
 GradGradGradGradGradGradGradGradGradGradGradGradGradGradGradGradGradGrad

                          Input orientation:                          
 ---------------------------------------------------------------------
 Center     Atomic      Atomic             Coordinates (Angstroms)
 Number     Number       Type             X           Y           Z
 ---------------------------------------------------------------------
      1          8           0        3.720101   -4.116561    0.936214
      2         17           0        2.958780   -5.228334    2.159567
      3          1           0        3.411366   -3.324284    1.402690
 ---------------------------------------------------------------------
                    Distance matrix (angstroms):
                    1          2          3
     1  O    0.000000
     2  Cl   1.819957   0.000000
     3  H    0.969855   2.098357   0.000000
 Stoichiometry    ClHO
 Framework group  CS[SG(ClHO)]
 Deg. of freedom     3
 Full point group                 CS      NOp   2
 Largest Abelian subgroup         CS      NOp   2
 Largest concise Abelian subgroup C1      NOp   1
                         Standard orientation:                         
 ---------------------------------------------------------------------
 Center     Atomic      Atomic             Coordinates (Angstroms)
 Number     Number       Type             X           Y           Z
 ---------------------------------------------------------------------
      1          8           0        0.037268    1.188384   -0.000000
      2         17           0        0.037268   -0.631573    0.000000
      3          1           0       -0.931708    1.229660   -0.000000
 ---------------------------------------------------------------------
 Rotational constants (GHZ):         569.8988868          13.2863482          12.9836536
 Standard basis: SVP (5D, 7F)
 There are    29 symmetry adapted cartesian basis functions of A'  symmetry.
 There are    10 symmetry adapted cartesian basis functions of A"  symmetry.
 There are    27 symmetry adapted basis functions of A'  symmetry.
 There are    10 symmetry adapted basis functions of A"  symmetry.
    37 basis functions,    69 primitive gaussians,    39 cartesian basis functions
    13 alpha electrons       13 beta electrons
       nuclear repulsion energy        48.1960205849 Hartrees.
 NAtoms=    3 NActive=    3 NUniq=    3 SFac= 1.00D+00 NAtFMM=   60 NAOKFM=F Big=F
 Integral buffers will be    131072 words long.
 Raffenetti 2 integral format.
 Two-electron integral symmetry is turned on.
 Nuclear repulsion after empirical dispersion term =       48.1944049342 Hartrees.
 One-electron integrals computed using PRISM.
 NBasis=    37 RedAO= T EigKep=  3.94D-02  NBF=    27    10
 NBsUse=    37 1.00D-06 EigRej= -1.00D+00 NBFU=    27    10
 Initial guess from the checkpoint file:  "/tmp/Gau-29447.chk"
 B after Tr=     0.000000    0.000000   -0.000000
         Rot=    1.000000    0.000000    0.000000    0.000819 Ang=   0.09 deg.
 Initial guess orbital symmetries:
       Occupied  (A') (A') (A') (A') (A') (A") (A') (A') (A') (A')
                 (A") (A') (A")
       Virtual   (A') (A') (A') (A') (A') (A") (A') (A') (A") (A')
                 (A") (A') (A") (A') (A') (A') (A") (A') (A') (A")
                 (A') (A') (A") (A')
 ExpMin= 1.22D-01 ExpMax= 1.04D+04 ExpMxC= 1.57D+03 IAcc=2 IRadAn=         4 AccDes= 0.00D+00
 Harris functional with IExCor=  402 and IRadAn=       4 diagonalized for initial guess.
 HarFok:  IExCor=  402 AccDes= 0.00D+00 IRadAn=         4 IDoV= 1 UseB2=F ITyADJ=14
 ICtDFT=  3500011 ScaDFX=  1.000000  1.000000  1.000000  1.000000
 FoFCou: FMM=F IPFlag=           0 FMFlag=      100000 FMFlg1=           0
         NFxFlg=           0 DoJE=T BraDBF=F KetDBF=T FulRan=T
         wScrn=  0.000000 ICntrl=       500 IOpCl=  0 I1Cent=   200000004 NGrid=           0
         NMat0=    1 NMatS0=      1 NMatT0=    0 NMatD0=    1 NMtDS0=    0 NMtDT0=    0
 Petite list used in FoFCou.
 Keep R1 ints in memory in symmetry-blocked form, NReq=7153137.
 Requested convergence on RMS density matrix=1.00D-08 within 128 cycles.
 Requested convergence on MAX density matrix=1.00D-06.
 Requested convergence on             energy=1.00D-06.
 No special actions if energy rises.
 Integral accuracy reduced to 1.0D-05 until final iterations.
 Initial convergence to 1.0D-05 achieved.  Increase integral accuracy.
 SCF Done:  E(RB3LYP) =  -535.755528035     A.U. after   11 cycles
            NFock= 11  Conv=0.28D-08     -V/T= 2.0028
 Calling FoFJK, ICntrl=      2127 FMM=F ISym2X=1 I1Cent= 0 IOpClX= 0 NMat=1 NMatS=1 NMatT=0.
 ***** Axes restored to original set *****
 -------------------------------------------------------------------
 Center     Atomic                   Forces (Hartrees/Bohr)
 Number     Number              X              Y              Z
 -------------------------------------------------------------------
      1        8          -0.016916982   -0.020664600    0.027087318
      2       17           0.012905678    0.010587570   -0.020541079
      3        1           0.004011304    0.010077030   -0.006546239
 -------------------------------------------------------------------
 Cartesian Forces:  Max     0.027087318 RMS     0.016013925

 GradGradGradGradGradGradGradGradGradGradGradGradGradGradGradGradGradGrad
 Berny optimization.
 FormGI is forming the generalized inverse of G from B-inverse, IUseBI=4.
 Internal  Forces:  Max     0.025674191 RMS     0.019697914
 Search for a saddle point.
 Step number   4 out of a maximum of  100
 All quantities printed in internal units (Hartrees-Bohrs-Radians)
 Swapping is turned off.
 Update second derivatives using D2CorX and points    1    2    3    4
 The second derivative matrix:
                          R1        R2        A1
           R1           0.15788
           R2          -0.02983   0.42888
           A1           0.05938   0.00185   0.21486
 ITU=  0  0  0  0
     Eigenvalues ---    0.11828   0.25111   0.43222
 Eigenvectors required to have negative eigenvalues:
                          R1        A1        R2
   1                   -0.84809   0.52306  -0.08456
 RFO step:  Lambda0=1.268810051D-01 Lambda=-2.25620230D-04.
 Linear search not attempted -- option 19 set.
 Iteration  1 RMS(Cart)=  0.02052829 RMS(Int)=  0.00003124
 Iteration  2 RMS(Cart)=  0.00003854 RMS(Int)=  0.00000000
 Iteration  3 RMS(Cart)=  0.00000000 RMS(Int)=  0.00000000
 ClnCor:  largest displacement from symmetrization is 2.39D-15 for atom     1.
 Variable       Old X    -DE/DX   Delta X   Delta X   Delta X     New X
                                 (Linear)    (Quad)   (Total)
    R1        3.43922  -0.02567   0.00000   0.03371   0.03371   3.47293
    R2        1.83276   0.00381   0.00000   0.01834   0.01834   1.85110
    A1        1.61337   0.02214   0.00000   0.00526   0.00526   1.61863
         Item               Value     Threshold  Converged?
 Maximum Force            0.025674     0.000450     NO 
 RMS     Force            0.019698     0.000300     NO 
 Maximum Displacement     0.022287     0.001800     NO 
 RMS     Displacement     0.020550     0.001200     NO 
 Predicted change in Energy= 8.363911D-04
 GradGradGradGradGradGradGradGradGradGradGradGradGradGradGradGradGradGrad

                          Input orientation:                          
 ---------------------------------------------------------------------
 Center     Atomic      Atomic             Coordinates (Angstroms)
 Number     Number       Type             X           Y           Z
 ---------------------------------------------------------------------
      1          8           0        3.722801   -4.115785    0.931952
      2         17           0        2.954728   -5.240128    2.166219
      3          1           0        3.412719   -3.313265    1.400301
 ---------------------------------------------------------------------
                    Distance matrix (angstroms):
                    1          2          3
     1  O    0.000000
     2  Cl   1.837797   0.000000
     3  H    0.979562   2.123485   0.000000
 Stoichiometry    ClHO
 Framework group  CS[SG(ClHO)]
 Deg. of freedom     3
 Full point group                 CS      NOp   2
 Largest Abelian subgroup         CS      NOp   2
 Largest concise Abelian subgroup C1      NOp   1
                         Standard orientation:                         
 ---------------------------------------------------------------------
 Center     Atomic      Atomic             Coordinates (Angstroms)
 Number     Number       Type             X           Y           Z
 ---------------------------------------------------------------------
      1          8           0        0.037632    1.199835   -0.000000
      2         17           0        0.037632   -0.637962    0.000000
      3          1           0       -0.940809    1.246670   -0.000000
 ---------------------------------------------------------------------
 Rotational constants (GHZ):         559.1226338          13.0250741          12.7285553
 Standard basis: SVP (5D, 7F)
 There are    29 symmetry adapted cartesian basis functions of A'  symmetry.
 There are    10 symmetry adapted cartesian basis functions of A"  symmetry.
 There are    27 symmetry adapted basis functions of A'  symmetry.
 There are    10 symmetry adapted basis functions of A"  symmetry.
    37 basis functions,    69 primitive gaussians,    39 cartesian basis functions
    13 alpha electrons       13 beta electrons
       nuclear repulsion energy        47.7181650593 Hartrees.
 NAtoms=    3 NActive=    3 NUniq=    3 SFac= 1.00D+00 NAtFMM=   60 NAOKFM=F Big=F
 Integral buffers will be    131072 words long.
 Raffenetti 2 integral format.
 Two-electron integral symmetry is turned on.
 Nuclear repulsion after empirical dispersion term =       47.7165511018 Hartrees.
 One-electron integrals computed using PRISM.
 NBasis=    37 RedAO= T EigKep=  4.06D-02  NBF=    27    10
 NBsUse=    37 1.00D-06 EigRej= -1.00D+00 NBFU=    27    10
 Initial guess from the checkpoint file:  "/tmp/Gau-29447.chk"
 B after Tr=    -0.000000    0.000000    0.000000
         Rot=    1.000000    0.000000   -0.000000    0.000117 Ang=   0.01 deg.
 Initial guess orbital symmetries:
       Occupied  (A') (A') (A') (A') (A') (A") (A') (A') (A') (A')
                 (A") (A') (A")
       Virtual   (A') (A') (A') (A') (A') (A") (A') (A') (A") (A')
                 (A") (A') (A") (A') (A') (A') (A") (A') (A') (A")
                 (A') (A') (A") (A')
 ExpMin= 1.22D-01 ExpMax= 1.04D+04 ExpMxC= 1.57D+03 IAcc=2 IRadAn=         4 AccDes= 0.00D+00
 Harris functional with IExCor=  402 and IRadAn=       4 diagonalized for initial guess.
 HarFok:  IExCor=  402 AccDes= 0.00D+00 IRadAn=         4 IDoV= 1 UseB2=F ITyADJ=14
 ICtDFT=  3500011 ScaDFX=  1.000000  1.000000  1.000000  1.000000
 FoFCou: FMM=F IPFlag=           0 FMFlag=      100000 FMFlg1=           0
         NFxFlg=           0 DoJE=T BraDBF=F KetDBF=T FulRan=T
         wScrn=  0.000000 ICntrl=       500 IOpCl=  0 I1Cent=   200000004 NGrid=           0
         NMat0=    1 NMatS0=      1 NMatT0=    0 NMatD0=    1 NMtDS0=    0 NMtDT0=    0
 Petite list used in FoFCou.
 Keep R1 ints in memory in symmetry-blocked form, NReq=7153137.
 Requested convergence on RMS density matrix=1.00D-08 within 128 cycles.
 Requested convergence on MAX density matrix=1.00D-06.
 Requested convergence on             energy=1.00D-06.
 No special actions if energy rises.
 Integral accuracy reduced to 1.0D-05 until final iterations.
 Initial convergence to 1.0D-05 achieved.  Increase integral accuracy.
 SCF Done:  E(RB3LYP) =  -535.754673967     A.U. after   10 cycles
            NFock= 10  Conv=0.73D-08     -V/T= 2.0028
 Calling FoFJK, ICntrl=      2127 FMM=F ISym2X=1 I1Cent= 0 IOpClX= 0 NMat=1 NMatS=1 NMatT=0.
 ***** Axes restored to original set *****
 -------------------------------------------------------------------
 Center     Atomic                   Forces (Hartrees/Bohr)
 Number     Number              X              Y              Z
 -------------------------------------------------------------------
      1        8          -0.020797346   -0.016139251    0.033079719
      2       17           0.014665781    0.014336028   -0.023397431
      3        1           0.006131565    0.001803223   -0.009682287
 -------------------------------------------------------------------
 Cartesian Forces:  Max     0.033079719 RMS     0.017919306

 GradGradGradGradGradGradGradGradGradGradGradGradGradGradGradGradGradGrad
 Berny optimization.
 FormGI is forming the generalized inverse of G from B-inverse, IUseBI=4.
 Internal  Forces:  Max     0.030613983 RMS     0.021098324
 Search for a saddle point.
 Step number   5 out of a maximum of  100
 All quantities printed in internal units (Hartrees-Bohrs-Radians)
 Swapping is turned off.
 Update second derivatives using D2CorX and points    2    3    4    5
 The second derivative matrix:
                          R1        R2        A1
           R1           0.13451
           R2           0.00770   0.47032
           A1           0.05013   0.00247   0.21196
 ITU=  0  0  0  0
     Eigenvalues ---    0.10980   0.23645   0.47055
 Eigenvectors required to have negative eigenvalues:
                          R1        A1        R2
   1                   -0.89779   0.44012   0.01616
 RFO step:  Lambda0=1.204951272D-01 Lambda=-1.33212525D-04.
 Linear search not attempted -- option 19 set.
 Iteration  1 RMS(Cart)=  0.01424658 RMS(Int)=  0.00001674
 Iteration  2 RMS(Cart)=  0.00001587 RMS(Int)=  0.00000000
 Iteration  3 RMS(Cart)=  0.00000000 RMS(Int)=  0.00000000
 ClnCor:  largest displacement from symmetrization is 1.33D-15 for atom     3.
 Variable       Old X    -DE/DX   Delta X   Delta X   Delta X     New X
                                 (Linear)    (Quad)   (Total)
    R1        3.47293  -0.03061   0.00000   0.02559   0.02559   3.49853
    R2        1.85110  -0.00509   0.00000  -0.01258  -0.01258   1.83852
    A1        1.61863   0.01929   0.00000   0.00588   0.00588   1.62451
         Item               Value     Threshold  Converged?
 Maximum Force            0.030614     0.000450     NO 
 RMS     Force            0.021098     0.000300     NO 
 Maximum Displacement     0.015307     0.001800     NO 
 RMS     Displacement     0.014253     0.001200     NO 
 Predicted change in Energy= 6.958004D-04
 GradGradGradGradGradGradGradGradGradGradGradGradGradGradGradGradGradGrad

                          Input orientation:                          
 ---------------------------------------------------------------------
 Center     Atomic      Atomic             Coordinates (Angstroms)
 Number     Number       Type             X           Y           Z
 ---------------------------------------------------------------------
      1          8           0        3.722874   -4.109480    0.931687
      2         17           0        2.951758   -5.248228    2.171081
      3          1           0        3.415616   -3.311470    1.395703
 ---------------------------------------------------------------------
                    Distance matrix (angstroms):
                    1          2          3
     1  O    0.000000
     2  Cl   1.851341   0.000000
     3  H    0.972902   2.137150   0.000000
 Stoichiometry    ClHO
 Framework group  CS[SG(ClHO)]
 Deg. of freedom     3
 Full point group                 CS      NOp   2
 Largest Abelian subgroup         CS      NOp   2
 Largest concise Abelian subgroup C1      NOp   1
                         Standard orientation:                         
 ---------------------------------------------------------------------
 Center     Atomic      Atomic             Coordinates (Angstroms)
 Number     Number       Type             X           Y           Z
 ---------------------------------------------------------------------
      1          8           0        0.037365    1.208483    0.000000
      2         17           0        0.037365   -0.642858   -0.000000
      3          1           0       -0.934133    1.260718    0.000000
 ---------------------------------------------------------------------
 Rotational constants (GHZ):         567.3186379          12.8312030          12.5474147
 Standard basis: SVP (5D, 7F)
 There are    29 symmetry adapted cartesian basis functions of A'  symmetry.
 There are    10 symmetry adapted cartesian basis functions of A"  symmetry.
 There are    27 symmetry adapted basis functions of A'  symmetry.
 There are    10 symmetry adapted basis functions of A"  symmetry.
    37 basis functions,    69 primitive gaussians,    39 cartesian basis functions
    13 alpha electrons       13 beta electrons
       nuclear repulsion energy        47.4341698920 Hartrees.
 NAtoms=    3 NActive=    3 NUniq=    3 SFac= 1.00D+00 NAtFMM=   60 NAOKFM=F Big=F
 Integral buffers will be    131072 words long.
 Raffenetti 2 integral format.
 Two-electron integral symmetry is turned on.
 Nuclear repulsion after empirical dispersion term =       47.4325571156 Hartrees.
 One-electron integrals computed using PRISM.
 NBasis=    37 RedAO= T EigKep=  4.11D-02  NBF=    27    10
 NBsUse=    37 1.00D-06 EigRej= -1.00D+00 NBFU=    27    10
 Initial guess from the checkpoint file:  "/tmp/Gau-29447.chk"
 B after Tr=     0.000000   -0.000000    0.000000
         Rot=    1.000000    0.000000   -0.000000    0.000532 Ang=   0.06 deg.
 Initial guess orbital symmetries:
       Occupied  (A') (A') (A') (A') (A') (A") (A') (A') (A') (A')
                 (A") (A') (A")
       Virtual   (A') (A') (A') (A') (A') (A") (A') (A') (A") (A')
                 (A") (A') (A") (A') (A') (A') (A") (A') (A') (A")
                 (A') (A') (A") (A')
 Keep R1 ints in memory in symmetry-blocked form, NReq=7153137.
 Requested convergence on RMS density matrix=1.00D-08 within 128 cycles.
 Requested convergence on MAX density matrix=1.00D-06.
 Requested convergence on             energy=1.00D-06.
 No special actions if energy rises.
 SCF Done:  E(RB3LYP) =  -535.753971748     A.U. after    9 cycles
            NFock=  9  Conv=0.28D-08     -V/T= 2.0028
 Calling FoFJK, ICntrl=      2127 FMM=F ISym2X=1 I1Cent= 0 IOpClX= 0 NMat=1 NMatS=1 NMatT=0.
 ***** Axes restored to original set *****
 -------------------------------------------------------------------
 Center     Atomic                   Forces (Hartrees/Bohr)
 Number     Number              X              Y              Z
 -------------------------------------------------------------------
      1        8          -0.019495178   -0.023731622    0.031213540
      2       17           0.015948991    0.017336637   -0.025486249
      3        1           0.003546187    0.006394985   -0.005727291
 -------------------------------------------------------------------
 Cartesian Forces:  Max     0.031213540 RMS     0.018880585

 GradGradGradGradGradGradGradGradGradGradGradGradGradGradGradGradGradGrad
 Berny optimization.
 FormGI is forming the generalized inverse of G from B-inverse, IUseBI=4.
 Internal  Forces:  Max     0.034368943 RMS     0.022122224
 Search for a saddle point.
 Step number   6 out of a maximum of  100
 All quantities printed in internal units (Hartrees-Bohrs-Radians)
 Swapping is turned off.
 Second derivative matrix not updated -- analytic derivatives used.
 The second derivative matrix:
                          R1        R2        A1
           R1           0.13451
           R2           0.00770   0.47032
           A1           0.05013   0.00247   0.21196
 ITU=  0  0  0  0
     Eigenvalues ---    0.10980   0.23645   0.47055
 Eigenvectors required to have negative eigenvalues:
                          R1        A1        R2
   1                   -0.89779   0.44012   0.01616
 RFO step:  Lambda0=1.218468378D-01 Lambda=-1.28052615D-06.
 Linear search not attempted -- option 19 set.
 Iteration  1 RMS(Cart)=  0.00092642 RMS(Int)=  0.00000030
 Iteration  2 RMS(Cart)=  0.00000041 RMS(Int)=  0.00000000
 ClnCor:  largest displacement from symmetrization is 2.84D-15 for atom     1.
 Variable       Old X    -DE/DX   Delta X   Delta X   Delta X     New X
                                 (Linear)    (Quad)   (Total)
    R1        3.49853  -0.03437   0.00000   0.00154   0.00154   3.50007
    R2        1.83852   0.00139   0.00000   0.00162   0.00162   1.84014
    A1        1.62451   0.01688   0.00000  -0.00066  -0.00066   1.62385
         Item               Value     Threshold  Converged?
 Maximum Force            0.034369     0.000450     NO 
 RMS     Force            0.022122     0.000300     NO 
 Maximum Displacement     0.000924     0.001800     YES
 RMS     Displacement     0.000926     0.001200     YES
 Predicted change in Energy= 6.271934D-05
 GradGradGradGradGradGradGradGradGradGradGradGradGradGradGradGradGradGrad

                          Input orientation:                          
 ---------------------------------------------------------------------
 Center     Atomic      Atomic             Coordinates (Angstroms)
 Number     Number       Type             X           Y           Z
 ---------------------------------------------------------------------
      1          8           0        3.723186   -4.109583    0.931198
      2         17           0        2.951582   -5.248491    2.171363
      3          1           0        3.415479   -3.311105    1.395910
 ---------------------------------------------------------------------
                    Distance matrix (angstroms):
                    1          2          3
     1  O    0.000000
     2  Cl   1.852159   0.000000
     3  H    0.973760   2.137753   0.000000
 Stoichiometry    ClHO
 Framework group  CS[SG(ClHO)]
 Deg. of freedom     3
 Full point group                 CS      NOp   2
 Largest Abelian subgroup         CS      NOp   2
 Largest concise Abelian subgroup C1      NOp   1
                         Standard orientation:                         
 ---------------------------------------------------------------------
 Center     Atomic      Atomic             Coordinates (Angstroms)
 Number     Number       Type             X           Y           Z
 ---------------------------------------------------------------------
      1          8           0        0.037400    1.209041    0.000000
      2         17           0        0.037400   -0.643118   -0.000000
      3          1           0       -0.934990    1.260680   -0.000000
 ---------------------------------------------------------------------
 Rotational constants (GHZ):         566.2567070          12.8204077          12.5365719
 Standard basis: SVP (5D, 7F)
 There are    29 symmetry adapted cartesian basis functions of A'  symmetry.
 There are    10 symmetry adapted cartesian basis functions of A"  symmetry.
 There are    27 symmetry adapted basis functions of A'  symmetry.
 There are    10 symmetry adapted basis functions of A"  symmetry.
    37 basis functions,    69 primitive gaussians,    39 cartesian basis functions
    13 alpha electrons       13 beta electrons
       nuclear repulsion energy        47.4119990103 Hartrees.
 NAtoms=    3 NActive=    3 NUniq=    3 SFac= 1.00D+00 NAtFMM=   60 NAOKFM=F Big=F
 Integral buffers will be    131072 words long.
 Raffenetti 2 integral format.
 Two-electron integral symmetry is turned on.
 Nuclear repulsion after empirical dispersion term =       47.4103862777 Hartrees.
 One-electron integrals computed using PRISM.
 NBasis=    37 RedAO= T EigKep=  4.11D-02  NBF=    27    10
 NBsUse=    37 1.00D-06 EigRej= -1.00D+00 NBFU=    27    10
 Initial guess from the checkpoint file:  "/tmp/Gau-29447.chk"
 B after Tr=    -0.000000    0.000000   -0.000000
         Rot=    1.000000    0.000000   -0.000000   -0.000027 Ang=  -0.00 deg.
 Initial guess orbital symmetries:
       Occupied  (A') (A') (A') (A') (A') (A") (A') (A') (A') (A')
                 (A") (A') (A")
       Virtual   (A') (A') (A') (A') (A') (A") (A') (A') (A") (A')
                 (A") (A') (A") (A') (A') (A') (A") (A') (A') (A")
                 (A') (A') (A") (A')
 Keep R1 ints in memory in symmetry-blocked form, NReq=7153137.
 Requested convergence on RMS density matrix=1.00D-08 within 128 cycles.
 Requested convergence on MAX density matrix=1.00D-06.
 Requested convergence on             energy=1.00D-06.
 No special actions if energy rises.
 SCF Done:  E(RB3LYP) =  -535.753909036     A.U. after    7 cycles
            NFock=  7  Conv=0.30D-08     -V/T= 2.0028
 Calling FoFJK, ICntrl=      2127 FMM=F ISym2X=1 I1Cent= 0 IOpClX= 0 NMat=1 NMatS=1 NMatT=0.
 ***** Axes restored to original set *****
 -------------------------------------------------------------------
 Center     Atomic                   Forces (Hartrees/Bohr)
 Number     Number              X              Y              Z
 -------------------------------------------------------------------
      1        8          -0.019820299   -0.023153112    0.031710869
      2       17           0.016014374    0.017411311   -0.025590815
      3        1           0.003805925    0.005741801   -0.006120054
 -------------------------------------------------------------------
 Cartesian Forces:  Max     0.031710869 RMS     0.018955803

 GradGradGradGradGradGradGradGradGradGradGradGradGradGradGradGradGradGrad
 Berny optimization.
 FormGI is forming the generalized inverse of G from B-inverse, IUseBI=4.
 Internal  Forces:  Max     0.034513249 RMS     0.022194734
 Search for a saddle point.
 Step number   7 out of a maximum of  100
 All quantities printed in internal units (Hartrees-Bohrs-Radians)
 Swapping is turned off.
 Update second derivatives using D2CorX and points    4    5    6    7
 The second derivative matrix:
                          R1        R2        A1
           R1           0.12354
           R2          -0.00536   0.50581
           A1           0.05736   0.00381   0.20233
 ITU=  0  0  0  0
     Eigenvalues ---    0.09325   0.23252   0.50591
 Eigenvectors required to have negative eigenvalues:
                          R1        A1        R2
   1                   -0.88475   0.46579  -0.01579
 RFO step:  Lambda0=1.070329077D-01 Lambda=-8.08395104D-06.
 Linear search not attempted -- option 19 set.
 Iteration  1 RMS(Cart)=  0.00450849 RMS(Int)=  0.00001451
 Iteration  2 RMS(Cart)=  0.00001444 RMS(Int)=  0.00000000
 Iteration  3 RMS(Cart)=  0.00000000 RMS(Int)=  0.00000000
 ClnCor:  largest displacement from symmetrization is 2.04D-15 for atom     3.
 Variable       Old X    -DE/DX   Delta X   Delta X   Delta X     New X
                                 (Linear)    (Quad)   (Total)
    R1        3.50007  -0.03451   0.00000   0.00245   0.00245   3.50253
    R2        1.84014   0.00059   0.00000   0.00245   0.00245   1.84259
    A1        1.62385   0.01692   0.00000  -0.00667  -0.00667   1.61718
         Item               Value     Threshold  Converged?
 Maximum Force            0.034513     0.000450     NO 
 RMS     Force            0.022195     0.000300     NO 
 Maximum Displacement     0.004062     0.001800     NO 
 RMS     Displacement     0.004516     0.001200     NO 
 Predicted change in Energy= 2.015065D-04
 GradGradGradGradGradGradGradGradGradGradGradGradGradGradGradGradGradGrad

                          Input orientation:                          
 ---------------------------------------------------------------------
 Center     Atomic      Atomic             Coordinates (Angstroms)
 Number     Number       Type             X           Y           Z
 ---------------------------------------------------------------------
      1          8           0        3.724552   -4.109511    0.929049
      2         17           0        2.951398   -5.246861    2.171614
      3          1           0        3.414297   -3.312806    1.397809
 ---------------------------------------------------------------------
                    Distance matrix (angstroms):
                    1          2          3
     1  O    0.000000
     2  Cl   1.853457   0.000000
     3  H    0.975055   2.133921   0.000000
 Stoichiometry    ClHO
 Framework group  CS[SG(ClHO)]
 Deg. of freedom     3
 Full point group                 CS      NOp   2
 Largest Abelian subgroup         CS      NOp   2
 Largest concise Abelian subgroup C1      NOp   1
                         Standard orientation:                         
 ---------------------------------------------------------------------
 Center     Atomic      Atomic             Coordinates (Angstroms)
 Number     Number       Type             X           Y           Z
 ---------------------------------------------------------------------
      1          8           0        0.037462    1.210137   -0.000000
      2         17           0        0.037462   -0.643320    0.000000
      3          1           0       -0.936545    1.255346   -0.000000
 ---------------------------------------------------------------------
 Rotational constants (GHZ):         564.1322676          12.8080330          12.5236956
 Standard basis: SVP (5D, 7F)
 There are    29 symmetry adapted cartesian basis functions of A'  symmetry.
 There are    10 symmetry adapted cartesian basis functions of A"  symmetry.
 There are    27 symmetry adapted basis functions of A'  symmetry.
 There are    10 symmetry adapted basis functions of A"  symmetry.
    37 basis functions,    69 primitive gaussians,    39 cartesian basis functions
    13 alpha electrons       13 beta electrons
       nuclear repulsion energy        47.3865677052 Hartrees.
 NAtoms=    3 NActive=    3 NUniq=    3 SFac= 1.00D+00 NAtFMM=   60 NAOKFM=F Big=F
 Integral buffers will be    131072 words long.
 Raffenetti 2 integral format.
 Two-electron integral symmetry is turned on.
 Nuclear repulsion after empirical dispersion term =       47.3849547466 Hartrees.
 One-electron integrals computed using PRISM.
 NBasis=    37 RedAO= T EigKep=  4.12D-02  NBF=    27    10
 NBsUse=    37 1.00D-06 EigRej= -1.00D+00 NBFU=    27    10
 Initial guess from the checkpoint file:  "/tmp/Gau-29447.chk"
 B after Tr=     0.000000   -0.000000   -0.000000
         Rot=    1.000000   -0.000000    0.000000   -0.000170 Ang=  -0.02 deg.
 Initial guess orbital symmetries:
       Occupied  (A') (A') (A') (A') (A') (A") (A') (A') (A') (A')
                 (A") (A') (A")
       Virtual   (A') (A') (A') (A') (A') (A") (A') (A') (A") (A')
                 (A") (A') (A") (A') (A') (A') (A") (A') (A') (A")
                 (A') (A') (A") (A')
 Keep R1 ints in memory in symmetry-blocked form, NReq=7153137.
 Requested convergence on RMS density matrix=1.00D-08 within 128 cycles.
 Requested convergence on MAX density matrix=1.00D-06.
 Requested convergence on             energy=1.00D-06.
 No special actions if energy rises.
 SCF Done:  E(RB3LYP) =  -535.753707938     A.U. after    8 cycles
            NFock=  8  Conv=0.52D-08     -V/T= 2.0028
 Calling FoFJK, ICntrl=      2127 FMM=F ISym2X=1 I1Cent= 0 IOpClX= 0 NMat=1 NMatS=1 NMatT=0.
 ***** Axes restored to original set *****
 -------------------------------------------------------------------
 Center     Atomic                   Forces (Hartrees/Bohr)
 Number     Number              X              Y              Z
 -------------------------------------------------------------------
      1        8          -0.020524505   -0.022198038    0.032795178
      2       17           0.016105126    0.017089436   -0.025725814
      3        1           0.004419379    0.005108603   -0.007069364
 -------------------------------------------------------------------
 Cartesian Forces:  Max     0.032795178 RMS     0.019143836

 GradGradGradGradGradGradGradGradGradGradGradGradGradGradGradGradGradGrad
 Berny optimization.
 FormGI is forming the generalized inverse of G from B-inverse, IUseBI=4.
 Internal  Forces:  Max     0.034451842 RMS     0.022438980
 Search for a saddle point.
 Step number   8 out of a maximum of  100
 All quantities printed in internal units (Hartrees-Bohrs-Radians)
 Swapping is turned off.
 Update second derivatives using D2CorX and points    5    6    7    8
 The second derivative matrix:
                          R1        R2        A1
           R1           0.13262
           R2          -0.00309   0.50763
           A1           0.05681   0.00296   0.18034
 ITU=  0  0  0  0
     Eigenvalues ---    0.09482   0.21809   0.50768
 Eigenvectors required to have negative eigenvalues:
                          R1        A1        R2
   1                   -0.83276   0.55353  -0.01020
 RFO step:  Lambda0=1.085745856D-01 Lambda=-7.71218817D-05.
 Linear search not attempted -- option 19 set.
 Iteration  1 RMS(Cart)=  0.01888186 RMS(Int)=  0.00022764
 Iteration  2 RMS(Cart)=  0.00017328 RMS(Int)=  0.00000001
 Iteration  3 RMS(Cart)=  0.00000001 RMS(Int)=  0.00000000
 ClnCor:  largest displacement from symmetrization is 1.33D-15 for atom     1.
 Variable       Old X    -DE/DX   Delta X   Delta X   Delta X     New X
                                 (Linear)    (Quad)   (Total)
    R1        3.50253  -0.03445   0.00000   0.00525   0.00525   3.50778
    R2        1.84259  -0.00063   0.00000  -0.00024  -0.00024   1.84234
    A1        1.61718   0.01798   0.00000  -0.02605  -0.02605   1.59113
         Item               Value     Threshold  Converged?
 Maximum Force            0.034452     0.000450     NO 
 RMS     Force            0.022439     0.000300     NO 
 Maximum Displacement     0.018889     0.001800     NO 
 RMS     Displacement     0.018941     0.001200     NO 
 Predicted change in Energy= 7.044897D-04
 GradGradGradGradGradGradGradGradGradGradGradGradGradGradGradGradGradGrad

                          Input orientation:                          
 ---------------------------------------------------------------------
 Center     Atomic      Atomic             Coordinates (Angstroms)
 Number     Number       Type             X           Y           Z
 ---------------------------------------------------------------------
      1          8           0        3.728931   -4.107632    0.922121
      2         17           0        2.951235   -5.238745    2.171677
      3          1           0        3.410082   -3.322802    1.404674
 ---------------------------------------------------------------------
                    Distance matrix (angstroms):
                    1          2          3
     1  O    0.000000
     2  Cl   1.856237   0.000000
     3  H    0.974926   2.114160   0.000000
 Stoichiometry    ClHO
 Framework group  CS[SG(ClHO)]
 Deg. of freedom     3
 Full point group                 CS      NOp   2
 Largest Abelian subgroup         CS      NOp   2
 Largest concise Abelian subgroup C1      NOp   1
                         Standard orientation:                         
 ---------------------------------------------------------------------
 Center     Atomic      Atomic             Coordinates (Angstroms)
 Number     Number       Type             X           Y           Z
 ---------------------------------------------------------------------
      1          8           0        0.037489    1.212931   -0.000000
      2         17           0        0.037489   -0.643306    0.000000
      3          1           0       -0.937235    1.232750   -0.000000
 ---------------------------------------------------------------------
 Rotational constants (GHZ):         562.3437038          12.7914548          12.5069628
 Standard basis: SVP (5D, 7F)
 There are    29 symmetry adapted cartesian basis functions of A'  symmetry.
 There are    10 symmetry adapted cartesian basis functions of A"  symmetry.
 There are    27 symmetry adapted basis functions of A'  symmetry.
 There are    10 symmetry adapted basis functions of A"  symmetry.
    37 basis functions,    69 primitive gaussians,    39 cartesian basis functions
    13 alpha electrons       13 beta electrons
       nuclear repulsion energy        47.3683950142 Hartrees.
 NAtoms=    3 NActive=    3 NUniq=    3 SFac= 1.00D+00 NAtFMM=   60 NAOKFM=F Big=F
 Integral buffers will be    131072 words long.
 Raffenetti 2 integral format.
 Two-electron integral symmetry is turned on.
 Nuclear repulsion after empirical dispersion term =       47.3667809472 Hartrees.
 One-electron integrals computed using PRISM.
 NBasis=    37 RedAO= T EigKep=  4.12D-02  NBF=    27    10
 NBsUse=    37 1.00D-06 EigRej= -1.00D+00 NBFU=    27    10
 Initial guess from the checkpoint file:  "/tmp/Gau-29447.chk"
 B after Tr=    -0.000000   -0.000000   -0.000000
         Rot=    1.000000   -0.000000    0.000000   -0.000539 Ang=  -0.06 deg.
 Initial guess orbital symmetries:
       Occupied  (A') (A') (A') (A') (A') (A") (A') (A') (A') (A')
                 (A") (A') (A")
       Virtual   (A') (A') (A') (A') (A') (A") (A') (A') (A") (A')
                 (A") (A') (A") (A') (A') (A') (A") (A') (A') (A")
                 (A') (A') (A") (A')
 Keep R1 ints in memory in symmetry-blocked form, NReq=7153137.
 Requested convergence on RMS density matrix=1.00D-08 within 128 cycles.
 Requested convergence on MAX density matrix=1.00D-06.
 Requested convergence on             energy=1.00D-06.
 No special actions if energy rises.
 SCF Done:  E(RB3LYP) =  -535.753003907     A.U. after    9 cycles
            NFock=  9  Conv=0.32D-08     -V/T= 2.0028
 Calling FoFJK, ICntrl=      2127 FMM=F ISym2X=1 I1Cent= 0 IOpClX= 0 NMat=1 NMatS=1 NMatT=0.
 ***** Axes restored to original set *****
 -------------------------------------------------------------------
 Center     Atomic                   Forces (Hartrees/Bohr)
 Number     Number              X              Y              Z
 -------------------------------------------------------------------
      1        8          -0.021576520   -0.022314419    0.034451804
      2       17           0.016263300    0.015500258   -0.025936605
      3        1           0.005313220    0.006814161   -0.008515199
 -------------------------------------------------------------------
 Cartesian Forces:  Max     0.034451804 RMS     0.019649819

 GradGradGradGradGradGradGradGradGradGradGradGradGradGradGradGradGradGrad
 Berny optimization.
 FormGI is forming the generalized inverse of G from B-inverse, IUseBI=4.
 Internal  Forces:  Max     0.033718886 RMS     0.023351821
 Search for a saddle point.
 Step number   9 out of a maximum of  100
 All quantities printed in internal units (Hartrees-Bohrs-Radians)
 Swapping is turned off.
 Update second derivatives using D2CorX and points    6    7    8    9
 The second derivative matrix:
                          R1        R2        A1
           R1           0.13341
           R2          -0.00266   0.50767
           A1           0.05506   0.00098   0.17825
 ITU=  0  0  0  0
     Eigenvalues ---    0.09636   0.21529   0.50769
 Eigenvectors required to have negative eigenvalues:
                          R1        A1        R2
   1                   -0.82979   0.55803  -0.00670
 RFO step:  Lambda0=1.110884626D-01 Lambda=-4.52664105D-07.
 Linear search not attempted -- option 19 set.
 Iteration  1 RMS(Cart)=  0.00140690 RMS(Int)=  0.00000126
 Iteration  2 RMS(Cart)=  0.00000088 RMS(Int)=  0.00000000
 ClnCor:  largest displacement from symmetrization is 1.99D-15 for atom     3.
 Variable       Old X    -DE/DX   Delta X   Delta X   Delta X     New X
                                 (Linear)    (Quad)   (Total)
    R1        3.50778  -0.03372   0.00000   0.00041   0.00041   3.50819
    R2        1.84234  -0.00047   0.00000  -0.00038  -0.00038   1.84197
    A1        1.59113   0.02233   0.00000  -0.00187  -0.00187   1.58926
         Item               Value     Threshold  Converged?
 Maximum Force            0.033719     0.000450     NO 
 RMS     Force            0.023352     0.000300     NO 
 Maximum Displacement     0.001551     0.001800     YES
 RMS     Displacement     0.001407     0.001200     NO 
 Predicted change in Energy= 5.566062D-05
 GradGradGradGradGradGradGradGradGradGradGradGradGradGradGradGradGradGrad

                          Input orientation:                          
 ---------------------------------------------------------------------
 Center     Atomic      Atomic             Coordinates (Angstroms)
 Number     Number       Type             X           Y           Z
 ---------------------------------------------------------------------
      1          8           0        3.729221   -4.107409    0.921659
      2         17           0        2.951222   -5.238148    2.171683
      3          1           0        3.409805   -3.323622    1.405129
 ---------------------------------------------------------------------
                    Distance matrix (angstroms):
                    1          2          3
     1  O    0.000000
     2  Cl   1.856452   0.000000
     3  H    0.974726   2.112655   0.000000
 Stoichiometry    ClHO
 Framework group  CS[SG(ClHO)]
 Deg. of freedom     3
 Full point group                 CS      NOp   2
 Largest Abelian subgroup         CS      NOp   2
 Largest concise Abelian subgroup C1      NOp   1
                         Standard orientation:                         
 ---------------------------------------------------------------------
 Center     Atomic      Atomic             Coordinates (Angstroms)
 Number     Number       Type             X           Y           Z
 ---------------------------------------------------------------------
      1          8           0        0.037483    1.213142    0.000000
      2         17           0        0.037483   -0.643310   -0.000000
      3          1           0       -0.937077    1.231135    0.000000
 ---------------------------------------------------------------------
 Rotational constants (GHZ):         562.4647364          12.7900361          12.5056665
 Standard basis: SVP (5D, 7F)
 There are    29 symmetry adapted cartesian basis functions of A'  symmetry.
 There are    10 symmetry adapted cartesian basis functions of A"  symmetry.
 There are    27 symmetry adapted basis functions of A'  symmetry.
 There are    10 symmetry adapted basis functions of A"  symmetry.
    37 basis functions,    69 primitive gaussians,    39 cartesian basis functions
    13 alpha electrons       13 beta electrons
       nuclear repulsion energy        47.3678079657 Hartrees.
 NAtoms=    3 NActive=    3 NUniq=    3 SFac= 1.00D+00 NAtFMM=   60 NAOKFM=F Big=F
 Integral buffers will be    131072 words long.
 Raffenetti 2 integral format.
 Two-electron integral symmetry is turned on.
 Nuclear repulsion after empirical dispersion term =       47.3661938201 Hartrees.
 One-electron integrals computed using PRISM.
 NBasis=    37 RedAO= T EigKep=  4.12D-02  NBF=    27    10
 NBsUse=    37 1.00D-06 EigRej= -1.00D+00 NBFU=    27    10
 Initial guess from the checkpoint file:  "/tmp/Gau-29447.chk"
 B after Tr=     0.000000   -0.000000    0.000000
         Rot=    1.000000    0.000000   -0.000000   -0.000032 Ang=  -0.00 deg.
 Initial guess orbital symmetries:
       Occupied  (A') (A') (A') (A') (A') (A") (A') (A') (A') (A')
                 (A") (A') (A")
       Virtual   (A') (A') (A') (A') (A') (A") (A') (A') (A") (A')
                 (A") (A') (A") (A') (A') (A') (A") (A') (A') (A")
                 (A') (A') (A") (A')
 Keep R1 ints in memory in symmetry-blocked form, NReq=7153137.
 Requested convergence on RMS density matrix=1.00D-08 within 128 cycles.
 Requested convergence on MAX density matrix=1.00D-06.
 Requested convergence on             energy=1.00D-06.
 No special actions if energy rises.
 SCF Done:  E(RB3LYP) =  -535.752948245     A.U. after    7 cycles
            NFock=  7  Conv=0.80D-08     -V/T= 2.0028
 Calling FoFJK, ICntrl=      2127 FMM=F ISym2X=1 I1Cent= 0 IOpClX= 0 NMat=1 NMatS=1 NMatT=0.
 ***** Axes restored to original set *****
 -------------------------------------------------------------------
 Center     Atomic                   Forces (Hartrees/Bohr)
 Number     Number              X              Y              Z
 -------------------------------------------------------------------
      1        8          -0.021592752   -0.022477395    0.034481205
      2       17           0.016275582    0.015390408   -0.025953296
      3        1           0.005317169    0.007086988   -0.008527909
 -------------------------------------------------------------------
 Cartesian Forces:  Max     0.034481205 RMS     0.019683579

 GradGradGradGradGradGradGradGradGradGradGradGradGradGradGradGradGradGrad
 Berny optimization.
 FormGI is forming the generalized inverse of G from B-inverse, IUseBI=4.
 Internal  Forces:  Max     0.033670545 RMS     0.023427534
 Search for a saddle point.
 Step number  10 out of a maximum of  100
 All quantities printed in internal units (Hartrees-Bohrs-Radians)
 Swapping is turned off.
 Update second derivatives using D2CorX and points    7    8    9   10
 The second derivative matrix:
                          R1        R2        A1
           R1           0.13321
           R2          -0.00252   0.50741
           A1           0.05541   0.00049   0.17873
 ITU=  0  0  0  0
     Eigenvalues ---    0.09606   0.21587   0.50743
 Eigenvectors required to have negative eigenvalues:
                          R1        A1        R2
   1                   -0.83065   0.55676  -0.00575
 RFO step:  Lambda0=1.109072075D-01 Lambda=-2.16378671D-08.
 Linear search not attempted -- option 19 set.
 Iteration  1 RMS(Cart)=  0.00021877 RMS(Int)=  0.00000000
 Iteration  2 RMS(Cart)=  0.00000000 RMS(Int)=  0.00000000
 ClnCor:  largest displacement from symmetrization is 1.11D-15 for atom     1.
 Variable       Old X    -DE/DX   Delta X   Delta X   Delta X     New X
                                 (Linear)    (Quad)   (Total)
    R1        3.50819  -0.03367   0.00000   0.00042   0.00042   3.50860
    R2        1.84197  -0.00027   0.00000  -0.00008  -0.00008   1.84189
    A1        1.58926   0.02264   0.00000   0.00007   0.00007   1.58933
         Item               Value     Threshold  Converged?
 Maximum Force            0.033671     0.000450     NO 
 RMS     Force            0.023428     0.000300     NO 
 Maximum Displacement     0.000248     0.001800     YES
 RMS     Displacement     0.000219     0.001200     YES
 Predicted change in Energy= 1.228986D-05
 GradGradGradGradGradGradGradGradGradGradGradGradGradGradGradGradGradGrad

                          Input orientation:                          
 ---------------------------------------------------------------------
 Center     Atomic      Atomic             Coordinates (Angstroms)
 Number     Number       Type             X           Y           Z
 ---------------------------------------------------------------------
      1          8           0        3.729234   -4.107334    0.921637
      2         17           0        2.951173   -5.238279    2.171764
      3          1           0        3.409841   -3.323566    1.405071
 ---------------------------------------------------------------------
                    Distance matrix (angstroms):
                    1          2          3
     1  O    0.000000
     2  Cl   1.856672   0.000000
     3  H    0.974686   2.112894   0.000000
 Stoichiometry    ClHO
 Framework group  CS[SG(ClHO)]
 Deg. of freedom     3
[...]
           A1           0.05670   0.00159   0.17919
 ITU=  0  0  0  0
     Eigenvalues ---    0.09409   0.21698   0.50796
 Eigenvectors required to have negative eigenvalues:
                          R1        A1        R2
   1                   -0.83210   0.55457  -0.00746
 RFO step:  Lambda0=1.092188566D-01 Lambda= 0.00000000D+00.
 Linear search not attempted -- option 19 set.
 Iteration  1 RMS(Cart)=  0.00000000 RMS(Int)=  0.00000000
 ClnCor:  largest displacement from symmetrization is 4.44D-15 for atom     3.
 Variable       Old X    -DE/DX   Delta X   Delta X   Delta X     New X
                                 (Linear)    (Quad)   (Total)
    R1        3.50935  -0.03383   0.00000   0.00000   0.00000   3.50935
    R2        1.84205  -0.00030   0.00000  -0.00000  -0.00000   1.84205
    A1        1.58946   0.02254   0.00000   0.00000   0.00000   1.58946
         Item               Value     Threshold  Converged?
 Maximum Force            0.033826     0.000450     NO 
 RMS     Force            0.023470     0.000300     NO 
 Maximum Displacement     0.000000     0.001800     YES
 RMS     Displacement     0.000000     0.001200     YES
 Predicted change in Energy= 2.072841D-10
 GradGradGradGradGradGradGradGradGradGradGradGradGradGradGradGradGradGrad

                          Input orientation:                          
 ---------------------------------------------------------------------
 Center     Atomic      Atomic             Coordinates (Angstroms)
 Number     Number       Type             X           Y           Z
 ---------------------------------------------------------------------
      1          8           0        3.729276   -4.107264    0.921569
      2         17           0        2.951084   -5.238531    2.171910
      3          1           0        3.409888   -3.323384    1.404992
 ---------------------------------------------------------------------
                    Distance matrix (angstroms):
                    1          2          3
     1  O    0.000000
     2  Cl   1.857067   0.000000
     3  H    0.974768   2.113398   0.000000
 Stoichiometry    ClHO
 Framework group  CS[SG(ClHO)]
 Deg. of freedom     3
 Full point group                 CS      NOp   2
 Largest Abelian subgroup         CS      NOp   2
 Largest concise Abelian subgroup C1      NOp   1
                         Standard orientation:                         
 ---------------------------------------------------------------------
 Center     Atomic      Atomic             Coordinates (Angstroms)
 Number     Number       Type             X           Y           Z
 ---------------------------------------------------------------------
      1          8           0        0.037485    1.213537   -0.000000
      2         17           0        0.037485   -0.643531    0.000000
      3          1           0       -0.937114    1.231731   -0.000000
 ---------------------------------------------------------------------
 Rotational constants (GHZ):         562.4272299          12.7814094          12.4974004
 Standard basis: SVP (5D, 7F)
 There are    29 symmetry adapted cartesian basis functions of A'  symmetry.
 There are    10 symmetry adapted cartesian basis functions of A"  symmetry.
 There are    27 symmetry adapted basis functions of A'  symmetry.
 There are    10 symmetry adapted basis functions of A"  symmetry.
    37 basis functions,    69 primitive gaussians,    39 cartesian basis functions
    13 alpha electrons       13 beta electrons
       nuclear repulsion energy        47.3532868520 Hartrees.
 NAtoms=    3 NActive=    3 NUniq=    3 SFac= 1.00D+00 NAtFMM=   60 NAOKFM=F Big=F
 Integral buffers will be    131072 words long.
 Raffenetti 2 integral format.
 Two-electron integral symmetry is turned on.
 Nuclear repulsion after empirical dispersion term =       47.3516727595 Hartrees.
 One-electron integrals computed using PRISM.
 NBasis=    37 RedAO= T EigKep=  4.13D-02  NBF=    27    10
 NBsUse=    37 1.00D-06 EigRej= -1.00D+00 NBFU=    27    10
 Initial guess from the checkpoint file:  "/tmp/Gau-29447.chk"
 B after Tr=     0.000000   -0.000000   -0.000000
         Rot=    1.000000    0.000000   -0.000000    0.000000 Ang=   0.00 deg.
 Initial guess orbital symmetries:
       Occupied  (A') (A') (A') (A') (A') (A") (A') (A') (A') (A')
                 (A") (A') (A")
       Virtual   (A') (A') (A') (A') (A') (A") (A') (A') (A") (A')
                 (A") (A') (A") (A') (A') (A') (A") (A') (A') (A")
                 (A') (A') (A") (A')
 Keep R1 ints in memory in symmetry-blocked form, NReq=7153137.
 Requested convergence on RMS density matrix=1.00D-08 within 128 cycles.
 Requested convergence on MAX density matrix=1.00D-06.
 Requested convergence on             energy=1.00D-06.
 No special actions if energy rises.
 SCF Done:  E(RB3LYP) =  -535.752913671     A.U. after    1 cycles
            NFock=  1  Conv=0.81D-09     -V/T= 2.0028
 Calling FoFJK, ICntrl=      2127 FMM=F ISym2X=1 I1Cent= 0 IOpClX= 0 NMat=1 NMatS=1 NMatT=0.
 ***** Axes restored to original set *****
 -------------------------------------------------------------------
 Center     Atomic                   Forces (Hartrees/Bohr)
 Number     Number              X              Y              Z
 -------------------------------------------------------------------
      1        8          -0.021633300   -0.022541462    0.034546478
      2       17           0.016329321    0.015512434   -0.026040685
      3        1           0.005303980    0.007029029   -0.008505793
 -------------------------------------------------------------------
 Cartesian Forces:  Max     0.034546478 RMS     0.019733964

 GradGradGradGradGradGradGradGradGradGradGradGradGradGradGradGradGradGrad
 Berny optimization.
 Internal  Forces:  Max     0.033825564 RMS     0.023469732
 Search for a saddle point.
 Step number  99 out of a maximum of  100
 All quantities printed in internal units (Hartrees-Bohrs-Radians)
 Swapping is turned off.
 Update second derivatives using D2CorX and points   99
 The second derivative matrix:
                          R1        R2        A1
           R1           0.13190
           R2          -0.00265   0.50793
           A1           0.05670   0.00159   0.17919
 ITU=  0  0  0  0
     Eigenvalues ---    0.09409   0.21698   0.50796
 Eigenvectors required to have negative eigenvalues:
                          R1        A1        R2
   1                   -0.83210   0.55457  -0.00746
 RFO step:  Lambda0=1.092188571D-01 Lambda= 0.00000000D+00.
 Linear search not attempted -- option 19 set.
 Iteration  1 RMS(Cart)=  0.00000001 RMS(Int)=  0.00000000
 ClnCor:  largest displacement from symmetrization is 1.54D-15 for atom     3.
 Variable       Old X    -DE/DX   Delta X   Delta X   Delta X     New X
                                 (Linear)    (Quad)   (Total)
    R1        3.50935  -0.03383   0.00000   0.00000   0.00000   3.50935
    R2        1.84205  -0.00030   0.00000   0.00000   0.00000   1.84205
    A1        1.58946   0.02254   0.00000  -0.00000  -0.00000   1.58946
         Item               Value     Threshold  Converged?
 Maximum Force            0.033826     0.000450     NO 
 RMS     Force            0.023470     0.000300     NO 
 Maximum Displacement     0.000000     0.001800     YES
 RMS     Displacement     0.000000     0.001200     YES
 Predicted change in Energy= 5.736285D-10
 GradGradGradGradGradGradGradGradGradGradGradGradGradGradGradGradGradGrad

                          Input orientation:                          
 ---------------------------------------------------------------------
 Center     Atomic      Atomic             Coordinates (Angstroms)
 Number     Number       Type             X           Y           Z
 ---------------------------------------------------------------------
      1          8           0        3.729276   -4.107264    0.921569
      2         17           0        2.951084   -5.238531    2.171910
      3          1           0        3.409888   -3.323384    1.404992
 ---------------------------------------------------------------------
                    Distance matrix (angstroms):
                    1          2          3
     1  O    0.000000
     2  Cl   1.857067   0.000000
     3  H    0.974768   2.113398   0.000000
 Stoichiometry    ClHO
 Framework group  CS[SG(ClHO)]
 Deg. of freedom     3
 Full point group                 CS      NOp   2
 Largest Abelian subgroup         CS      NOp   2
 Largest concise Abelian subgroup C1      NOp   1
                         Standard orientation:                         
 ---------------------------------------------------------------------
 Center     Atomic      Atomic             Coordinates (Angstroms)
 Number     Number       Type             X           Y           Z
 ---------------------------------------------------------------------
      1          8           0        0.037485    1.213537    0.000000
      2         17           0        0.037485   -0.643531   -0.000000
      3          1           0       -0.937114    1.231731    0.000000
 ---------------------------------------------------------------------
 Rotational constants (GHZ):         562.4272216          12.7814094          12.4974004
 Standard basis: SVP (5D, 7F)
 There are    29 symmetry adapted cartesian basis functions of A'  symmetry.
 There are    10 symmetry adapted cartesian basis functions of A"  symmetry.
 There are    27 symmetry adapted basis functions of A'  symmetry.
 There are    10 symmetry adapted basis functions of A"  symmetry.
    37 basis functions,    69 primitive gaussians,    39 cartesian basis functions
    13 alpha electrons       13 beta electrons
       nuclear repulsion energy        47.3532867480 Hartrees.
 NAtoms=    3 NActive=    3 NUniq=    3 SFac= 1.00D+00 NAtFMM=   60 NAOKFM=F Big=F
 Integral buffers will be    131072 words long.
 Raffenetti 2 integral format.
 Two-electron integral symmetry is turned on.
 Nuclear repulsion after empirical dispersion term =       47.3516726555 Hartrees.
 One-electron integrals computed using PRISM.
 NBasis=    37 RedAO= T EigKep=  4.13D-02  NBF=    27    10
 NBsUse=    37 1.00D-06 EigRej= -1.00D+00 NBFU=    27    10
 Initial guess from the checkpoint file:  "/tmp/Gau-29447.chk"
 B after Tr=    -0.000000    0.000000    0.000000
         Rot=    1.000000   -0.000000   -0.000000   -0.000000 Ang=   0.00 deg.
 Initial guess orbital symmetries:
       Occupied  (A') (A') (A') (A') (A') (A") (A') (A') (A') (A')
                 (A") (A') (A")
       Virtual   (A') (A') (A') (A') (A') (A") (A') (A') (A") (A')
                 (A") (A') (A") (A') (A') (A') (A") (A') (A') (A")
                 (A') (A') (A") (A')
 Keep R1 ints in memory in symmetry-blocked form, NReq=7153137.
 Requested convergence on RMS density matrix=1.00D-08 within 128 cycles.
 Requested convergence on MAX density matrix=1.00D-06.
 Requested convergence on             energy=1.00D-06.
 No special actions if energy rises.
 SCF Done:  E(RB3LYP) =  -535.752913670     A.U. after    1 cycles
            NFock=  1  Conv=0.20D-08     -V/T= 2.0028
 Calling FoFJK, ICntrl=      2127 FMM=F ISym2X=1 I1Cent= 0 IOpClX= 0 NMat=1 NMatS=1 NMatT=0.
 ***** Axes restored to original set *****
 -------------------------------------------------------------------
 Center     Atomic                   Forces (Hartrees/Bohr)
 Number     Number              X              Y              Z
 -------------------------------------------------------------------
      1        8          -0.021633305   -0.022541445    0.034546485
      2       17           0.016329318    0.015512431   -0.026040682
      3        1           0.005303987    0.007029014   -0.008505803
 -------------------------------------------------------------------
 Cartesian Forces:  Max     0.034546485 RMS     0.019733963

 GradGradGradGradGradGradGradGradGradGradGradGradGradGradGradGradGradGrad
 Berny optimization.
 Internal  Forces:  Max     0.033825560 RMS     0.023469731
 Search for a saddle point.
 Step number 100 out of a maximum of  100
 All quantities printed in internal units (Hartrees-Bohrs-Radians)
 Swapping is turned off.
 Update second derivatives using D2CorX and points  100
 The second derivative matrix:
                          R1        R2        A1
           R1           0.13190
           R2          -0.00265   0.50793
           A1           0.05670   0.00159   0.17919
 ITU=  0  0  0  0
     Eigenvalues ---    0.09409   0.21698   0.50796
 Eigenvectors required to have negative eigenvalues:
                          R1        A1        R2
   1                   -0.83210   0.55457  -0.00746
 RFO step:  Lambda0=1.092188557D-01 Lambda= 0.00000000D+00.
 Linear search not attempted -- option 19 set.
 Iteration  1 RMS(Cart)=  0.00000002 RMS(Int)=  0.00000000
 ClnCor:  largest displacement from symmetrization is 1.54D-15 for atom     3.
 Variable       Old X    -DE/DX   Delta X   Delta X   Delta X     New X
                                 (Linear)    (Quad)   (Total)
    R1        3.50935  -0.03383   0.00000   0.00000   0.00000   3.50935
    R2        1.84205  -0.00030   0.00000  -0.00000  -0.00000   1.84205
    A1        1.58946   0.02254   0.00000  -0.00000  -0.00000   1.58946
         Item               Value     Threshold  Converged?
 Maximum Force            0.033826     0.000450     NO 
 RMS     Force            0.023470     0.000300     NO 
 Maximum Displacement     0.000000     0.001800     YES
 RMS     Displacement     0.000000     0.001200     YES
 Predicted change in Energy= 1.173482D-09
 Optimization stopped.
    -- Number of steps exceeded,  NStep= 100
    -- Flag reset to prevent archiving.
                           ----------------------------
                           ! Non-Optimized Parameters !
                           ! (Angstroms and Degrees)  !
 --------------------------                            --------------------------
 ! Name  Definition              Value          Derivative Info.                !
 --------------------------------------------------------------------------------
 ! R1    R(1,2)                  1.8571         -DE/DX =   -0.0338              !
 ! R2    R(1,3)                  0.9748         -DE/DX =   -0.0003              !
 ! A1    A(2,1,3)               91.0695         -DE/DX =    0.0225              !
 --------------------------------------------------------------------------------
 GradGradGradGradGradGradGradGradGradGradGradGradGradGradGradGradGradGrad

                          Input orientation:                          
 ---------------------------------------------------------------------
 Center     Atomic      Atomic             Coordinates (Angstroms)
 Number     Number       Type             X           Y           Z
 ---------------------------------------------------------------------
      1          8           0        3.729276   -4.107264    0.921569
      2         17           0        2.951084   -5.238531    2.171910
      3          1           0        3.409888   -3.323384    1.404992
 ---------------------------------------------------------------------
                    Distance matrix (angstroms):
                    1          2          3
     1  O    0.000000
     2  Cl   1.857067   0.000000
     3  H    0.974768   2.113398   0.000000
 Stoichiometry    ClHO
 Framework group  CS[SG(ClHO)]
 Deg. of freedom     3
 Full point group                 CS      NOp   2
 Largest Abelian subgroup         CS      NOp   2
 Largest concise Abelian subgroup C1      NOp   1
                         Standard orientation:                         
 ---------------------------------------------------------------------
 Center     Atomic      Atomic             Coordinates (Angstroms)
 Number     Number       Type             X           Y           Z
 ---------------------------------------------------------------------
      1          8           0        0.037485    1.213537    0.000000
      2         17           0        0.037485   -0.643531   -0.000000
      3          1           0       -0.937114    1.231731    0.000000
 ---------------------------------------------------------------------
 Rotational constants (GHZ):         562.4272216          12.7814094          12.4974004

 **********************************************************************

            Population analysis using the SCF density.

 **********************************************************************

 Orbital symmetries:
       Occupied  (A') (A') (A') (A') (A') (A") (A') (A') (A') (A')
                 (A") (A') (A")
       Virtual   (A') (A') (A') (A') (A') (A") (A') (A') (A") (A')
                 (A") (A') (A") (A') (A') (A') (A") (A') (A') (A")
                 (A') (A') (A") (A')
 The electronic state is 1-A'.
 Alpha  occ. eigenvalues -- -101.54468 -19.20952  -9.49523  -7.26850  -7.25256
 Alpha  occ. eigenvalues --   -7.25222  -1.02393  -0.79681  -0.50031  -0.43247
 Alpha  occ. eigenvalues --   -0.38441  -0.32377  -0.29370
 Alpha virt. eigenvalues --   -0.11677   0.05585   0.46588   0.55934   0.68291
 Alpha virt. eigenvalues --    0.69502   0.69555   0.75858   0.76081   0.83505
 Alpha virt. eigenvalues --    0.83937   0.92281   0.99569   0.99849   1.07469
 Alpha virt. eigenvalues --    1.38852   1.39927   1.49916   2.15432   2.59862
 Alpha virt. eigenvalues --    2.77876   2.91222   2.92451   3.63987
          Condensed to atoms (all electrons):
               1          2          3
     1  O    7.829632   0.137584   0.295317
     2  Cl   0.137584  16.828575  -0.017593
     3  H    0.295317  -0.017593   0.511176
 Mulliken charges:
               1
     1  O   -0.262534
     2  Cl   0.051434
     3  H    0.211100
 Sum of Mulliken charges =  -0.00000
 Mulliken charges with hydrogens summed into heavy atoms:
               1
     1  O   -0.051434
     2  Cl   0.051434
 Electronic spatial extent (au):  <R**2>=            114.5033
 Charge=             -0.0000 electrons
 Dipole moment (field-independent basis, Debye):
    X=             -1.6534    Y=             -0.1303    Z=             -0.0000  Tot=              1.6586
 Quadrupole moment (field-independent basis, Debye-Ang):
   XX=            -16.5294   YY=            -16.7129   ZZ=            -18.6905
   XY=             -2.3039   XZ=              0.0000   YZ=             -0.0000
 Traceless Quadrupole moment (field-independent basis, Debye-Ang):
   XX=              0.7815   YY=              0.5981   ZZ=             -1.3796
   XY=             -2.3039   XZ=              0.0000   YZ=             -0.0000
 Octapole moment (field-independent basis, Debye-Ang**2):
  XXX=             -2.2291  YYY=             -0.2326  ZZZ=              0.0000  XYY=             -3.1338
  XXY=              3.1864  XXZ=             -0.0000  XZZ=             -0.2399  YZZ=              0.5521
  YYZ=             -0.0000  XYZ=              0.0000
 Hexadecapole moment (field-independent basis, Debye-Ang**3):
 XXXX=            -16.8913 YYYY=            -88.1751 ZZZZ=            -16.7250 XXXY=             -0.3541
 XXXZ=              0.0000 YYYX=             -2.2182 YYYZ=             -0.0000 ZZZX=              0.0000
 ZZZY=             -0.0000 XXYY=            -16.7284 XXZZ=             -5.9188 YYZZ=            -19.6267
 XXYZ=             -0.0000 YYXZ=              0.0000 ZZXY=              0.5077
 N-N= 4.735167265550D+01 E-N=-1.367560567874D+03  KE= 5.342346849266D+02
 Symmetry A'   KE= 4.834844885923D+02
 Symmetry A"   KE= 5.075019633428D+01


 TERRY FORSTER, PORTLY ATLANTA BRAVES RELIEVER,
 ANNOUNCING THAT HE WAS GOING TO A FAT FARM:
 "A WAIST IS A TERRIBLE THING TO MIND."
 Error termination request processed by link 9999.
 Error termination via Lnk1e in /share/apps/g16.a03/g16/l9999.exe at Thu Mar  6 16:42:57 2025.
 Job cpu time:       0 days  0 hours 13 minutes  6.5 seconds.
 Elapsed time:       0 days  0 hours  1 minutes 41.9 seconds.
 File lengths (MBytes):  RWF=      6 Int=      0 D2E=      0 Chk=      1 Scr=      1
