70
 energy: -143.141826691342 gnorm: 0.116105619676 xtb: 6.6.1 (8d0f1dd)
O    -3.13948712    -1.22583406     3.94212232
H    -3.91399716    -0.66689278     4.02612749
H    -3.19291795    -1.67528806     3.09685613
O    -4.35936551    -1.42016090    -2.10709290
H    -3.56347798    -1.05578829    -2.49841685
H    -4.48621555    -0.78314002    -1.40179045
O    -0.92158538    -0.01153171     2.99126682
H    -0.79298244    -0.77489879     2.42551900
H    -1.65113262    -0.20838531     3.58147681
O    -2.87910512    -2.71105974     1.53825332
H    -3.45673080    -3.06697396     0.86074862
H    -2.11431622    -3.25374665     1.73807158
O     1.40101868    -1.14175791    -1.39729950
H     0.65455791    -0.88889857    -0.85122471
H     1.20479236    -0.78941413    -2.26717719
O     1.65742077    -3.62420706    -0.23109611
H     1.94164834    -2.81444883    -0.65869906
H     1.46557294    -4.40387756    -0.75516459
O    -1.09854579    -3.51409225    -2.03777294
H    -1.03638141    -2.91767938    -1.28959868
H    -0.47575475    -3.10006421    -2.63781518
O    -3.92329444    -4.21070610    -0.74163848
H    -4.19898821    -3.36700372    -1.10426419
H    -3.55481316    -4.79158011    -1.40957818
O    -1.25794970    -1.24807417    -0.37987855
H    -1.84306658    -1.52090028     0.32902394
H    -1.57378260    -0.40194156    -0.70182108
O    -2.54990384     1.06464993    -1.46035798
H    -2.05562825     1.12345825    -2.27985268
H    -2.56110232     1.95088985    -1.09458251
O     0.18248561     0.88340403    -3.00247363
Cl    -0.24090619     2.15689979    -4.05133499
H     0.51357091     1.29294617    -2.19423842
O     1.03917431     4.41018792     2.10024647
Cl     1.24812157     5.38197039     3.48341115
H     1.91924791     4.04768441     1.94324726
O     0.19719485    -2.56430796     1.71952782
Cl     0.58261429    -3.42743188     3.13643740
H     0.40913732    -3.03503400     0.90461463
O     0.70103005     0.55251752     4.98264185
Cl     2.13234479     0.36145347     4.07931827
H    -0.06175026     0.28780010     4.45474134
C     4.67429830    -0.30137554    -0.43200857
C     3.85343446    -1.07355176     0.38079455
C     2.69267843    -0.51098997     0.87663583
C     2.34672724     0.82240998     0.63321607
C     3.19342101     1.56497134    -0.18934561
C     4.30561088     0.99093395    -0.79425569
H     3.97592048    -2.12279037     0.61516691
H     2.02654684    -1.06408463     1.52959102
C    -1.91786946     3.23843541     0.70678560
C    -1.63979767     4.35861565    -0.08045628
C    -3.23727559     2.91655715     1.03757101
C    -2.69784787     5.08108183    -0.61733796
H    -0.63772172     4.75062011    -0.14785287
C    -4.28700318     3.63784365     0.49270398
C    -3.99521031     4.63001920    -0.43170238
H    -2.52221665     5.95313071    -1.23379528
H    -5.30941954     3.46512716     0.80193668
Cl     5.92563015    -1.15236169    -1.27770333
Cl    -5.29064284     5.65844397    -0.98561299
N     1.16089569     1.37380740     1.14243053
H     0.90048369     0.87310531     1.97743816
C     0.33003476     2.19273785     0.39420783
O     0.56735387     2.54333964    -0.73715964
N    -0.84630987     2.40780992     1.08573566
H    -0.87271849     1.90688158     1.95993325
H    -3.45196298     2.07494838     1.68797709
H     2.99809002     2.57334904    -0.51643149
Cl     5.45423961     1.88779761    -1.73321086
