70
 energy: -143.148308185166 gnorm: 0.100656189913 xtb: 6.6.1 (8d0f1dd)
O     0.88519424    -2.47235886     2.88871420
H     0.21520326    -3.07966651     3.20750490
H     0.62696837    -2.29778238     1.98197215
O    -2.43340427     0.78716058    -0.53398778
H    -2.39468084     1.66668302    -0.15414629
H    -3.27591425     0.42078415    -0.25960973
O    -3.38663354    -2.56376174    -0.43761254
H    -2.59325207    -2.15804839    -0.08366178
H    -3.09376900    -3.34317374    -0.91309720
O    -0.84203408    -1.55852959     0.58880094
H    -0.91267266    -0.71713894     0.13447625
H    -0.48261162    -2.09095087    -0.12301473
O    -2.68704438    -1.02377001     2.60639978
H    -3.16235228    -1.84868228     2.72015975
H    -2.00100367    -1.21405162     1.96415438
O     3.16649372    -2.34266010    -2.24539632
H     2.95114116    -1.40979407    -2.29757133
H     3.88607051    -2.55561497    -2.84222035
O    -1.23252505    -4.31638004    -1.32949049
H    -0.47426844    -4.84640636    -1.07758482
H    -1.60932478    -4.79861350    -2.06760392
O    -0.20611882     0.04819187     3.76106231
H    -1.09508376    -0.29652357     3.65981615
H     0.35240948    -0.64151748     3.39817989
O     2.63681165     0.34150092    -2.70328787
H     2.92796329     1.18641276    -2.35587844
H     1.69343509     0.24781971    -2.55975279
O    -0.89026691    -0.07794144    -2.73758843
H    -0.97827154     0.39124203    -3.56912940
H    -1.46433286     0.36741342    -2.11193227
O    -4.86497425    -0.33093386     0.42951897
Cl    -6.53158688    -0.09987830     0.69443010
H    -4.67944173    -1.17313320    -0.00275915
O     0.57778834     2.33420300     3.11594562
Cl    -0.39253798     3.64265252     3.61353116
H     0.32312591     1.56274953     3.63613182
O     1.96225792    -3.43352063    -0.07904494
Cl     3.21156049    -3.82727273     1.00970029
H     2.22083096    -3.04033919    -0.92114616
O    -3.18544659     1.65344307     2.30216271
Cl    -3.76944305     2.31316462     3.75985830
H    -2.98990182     0.72040557     2.44978165
C     5.51344826    -0.14311257     0.56388400
C     4.51479451    -0.39481169     1.49665445
C     3.44903197     0.48435965     1.52660178
C     3.36122360     1.62231908     0.71775764
C     4.37572559     1.85573397    -0.21025026
C     5.45751631     0.98369507    -0.25121928
H     4.59826093    -1.31694819     2.05659419
H     2.66594306     0.38080825     2.26959865
C    -0.73176174     3.93560113    -0.55164606
C    -0.79050946     4.12879972    -1.93407163
C    -1.83773263     4.22359739     0.25317919
C    -1.96538910     4.56501309    -2.53327548
H     0.04360346     3.86667861    -2.56487602
C    -3.02763012     4.56979707    -0.36597513
C    -3.07411708     4.79484327    -1.73392092
H    -1.97627264     4.70784944    -3.60603572
H    -3.92299003     4.76977080     0.20772531
Cl     6.81549284    -1.25425816     0.28957783
Cl    -4.63038401     5.18578932    -2.41789046
N     2.31606583     2.53823534     0.91340424
H     1.87855330     2.52599485     1.82125207
C     1.47340199     2.74175249    -0.16794336
O     1.64750534     2.34751649    -1.29643807
N     0.37893046     3.50168573     0.19659326
H     0.29837295     3.78771244     1.15968581
H    -1.79932708     4.05167686     1.32387634
H     4.33988503     2.67823661    -0.90607336
Cl     6.56446409     0.97559523    -1.58536702
