 Entering Gaussian System, Link 0=g16
 Input=ts.gjf
 Output=ts.log
 Initial command:
 /share/apps/g16.a03/g16/l1.exe "/tmp/Gau-12486.inp" -scrdir="/tmp/"
 Entering Link 1 = /share/apps/g16.a03/g16/l1.exe PID=     12489.
  
 Copyright (c) 1988,1990,1992,1993,1995,1998,2003,2009,2016,
            Gaussian, Inc.  All Rights Reserved.
  
 This is part of the Gaussian(R) 16 program.  It is based on
 the Gaussian(R) 09 system (copyright 2009, Gaussian, Inc.),
 the Gaussian(R) 03 system (copyright 2003, Gaussian, Inc.),
 the Gaussian(R) 98 system (copyright 1998, Gaussian, Inc.),
 the Gaussian(R) 94 system (copyright 1995, Gaussian, Inc.),
 the Gaussian 92(TM) system (copyright 1992, Gaussian, Inc.),
 the Gaussian 90(TM) system (copyright 1990, Gaussian, Inc.),
 the Gaussian 88(TM) system (copyright 1988, Gaussian, Inc.),
 the Gaussian 86(TM) system (copyright 1986, Carnegie Mellon
 University), and the Gaussian 82(TM) system (copyright 1983,
 Carnegie Mellon University). Gaussian is a federally registered
 trademark of Gaussian, Inc.
  
 This software contains proprietary and confidential information,
 including trade secrets, belonging to Gaussian, Inc.
  
 This software is provided under written license and may be
 used, copied, transmitted, or stored only in accord with that
 written license.
  
 The following legend is applicable only to US Government
 contracts under FAR:
  
                    RESTRICTED RIGHTS LEGEND
  
 Use, reproduction and disclosure by the US Government is
 subject to restrictions as set forth in subparagraphs (a)
 and (c) of the Commercial Computer Software - Restricted
 Rights clause in FAR 52.227-19.
  
 Gaussian, Inc.
 340 Quinnipiac St., Bldg. 40, Wallingford CT 06492
  
  
 ---------------------------------------------------------------
 Warning -- This program may not be used in any manner that
 competes with the business of Gaussian, Inc. or will provide
 assistance to any competitor of Gaussian, Inc.  The licensee
 of this program is prohibited from giving any competitor of
 Gaussian, Inc. access to this program.  By using this program,
 the user acknowledges that Gaussian, Inc. is engaged in the
 business of creating and licensing software in the field of
 computational chemistry and represents and warrants to the
 licensee that it is not a competitor of Gaussian, Inc. and that
 it will not use this program in any manner prohibited above.
 ---------------------------------------------------------------
  

 Cite this work as:
 Gaussian 16, Revision A.03,
 M. J. Frisch, G. W. Trucks, H. B. Schlegel, G. E. Scuseria, 
 M. A. Robb, J. R. Cheeseman, G. Scalmani, V. Barone, 
 G. A. Petersson, H. Nakatsuji, X. Li, M. Caricato, A. V. Marenich, 
 J. Bloino, B. G. Janesko, R. Gomperts, B. Mennucci, H. P. Hratchian, 
 J. V. Ortiz, A. F. Izmaylov, J. L. Sonnenberg, D. Williams-Young, 
 F. Ding, F. Lipparini, F. Egidi, J. Goings, B. Peng, A. Petrone, 
 T. Henderson, D. Ranasinghe, V. G. Zakrzewski, J. Gao, N. Rega, 
 G. Zheng, W. Liang, M. Hada, M. Ehara, K. Toyota, R. Fukuda, 
 J. Hasegawa, M. Ishida, T. Nakajima, Y. Honda, O. Kitao, H. Nakai, 
 T. Vreven, K. Throssell, J. A. Montgomery, Jr., J. E. Peralta, 
 F. Ogliaro, M. J. Bearpark, J. J. Heyd, E. N. Brothers, K. N. Kudin, 
 V. N. Staroverov, T. A. Keith, R. Kobayashi, J. Normand, 
 K. Raghavachari, A. P. Rendell, J. C. Burant, S. S. Iyengar, 
 J. Tomasi, M. Cossi, J. M. Millam, M. Klene, C. Adamo, R. Cammi, 
 J. W. Ochterski, R. L. Martin, K. Morokuma, O. Farkas, 
 J. B. Foresman, and D. J. Fox, Gaussian, Inc., Wallingford CT, 2016.
 
 ******************************************
 Gaussian 16:  EM64L-G16RevA.03 25-Dec-2016
                 6-Mar-2025 
 ******************************************
 %nproc=8
 Will use up to    8 processors via shared memory.
 %mem=4000MB
 --------------------------------------------------------------------
 #opt=(noeigen,calcfc,ts,recalc=5,maxcyc=200) freq B3LYP/SVP em=GD3BJ
 --------------------------------------------------------------------
 1/5=1,6=200,10=4,11=1,18=20,26=3,38=1,71=5/1,3;
 2/9=110,12=2,17=6,18=5,40=1/2;
 3/5=18,7=101,11=2,25=1,30=1,71=2,74=-5,124=41,140=1/1,2,3;
 4//1;
 5/5=2,38=5/2;
 8/6=4,10=90,11=11/1;
 11/6=1,8=1,9=11,15=111,16=1/1,2,10;
 10/6=1,13=1/2;
 6/7=2,8=2,9=2,10=2,28=1/1;
 7/10=1,18=20,25=1/1,2,3,16;
 1/5=1,6=200,10=4,11=1,18=20,26=3,71=5/3(2);
 2/9=110/2;
 99//99;
 2/9=110/2;
 3/5=18,7=101,11=2,25=1,30=1,71=1,74=-5,124=41/1,2,3;
 4/5=5,16=3,69=1/1;
 5/5=2,38=5/2;
 7//1,2,3,16;
 1/5=1,6=200,11=1,18=20,26=3,71=5/3(-5);
 2/9=110/2;
 6/7=2,8=2,9=2,10=2,19=2,28=1/1;
 99/9=1/99;
 ----------
 ts-662.gjf
 ----------
 Symbolic Z-matrix:
 Charge =  0 Multiplicity = 1
 O                     0.04457   4.63054   3.80845 
 Cl                    0.0614    4.14517   1.39977 
 H                    -0.75752   5.1132    3.97118 
 
 Add virtual bond connecting atoms Cl2        and O1         Dist= 4.64D+00.

 GradGradGradGradGradGradGradGradGradGradGradGradGradGradGradGradGradGrad
 Berny optimization.
 Initialization pass.
                           ----------------------------
                           !    Initial Parameters    !
                           ! (Angstroms and Degrees)  !
 --------------------------                            --------------------------
 ! Name  Definition              Value          Derivative Info.                !
 --------------------------------------------------------------------------------
 ! R1    R(1,2)                  2.4571         calculate D2E/DX2 analytically  !
 ! R2    R(1,3)                  0.9502         calculate D2E/DX2 analytically  !
 ! A1    A(2,1,3)              105.9033         calculate D2E/DX2 analytically  !
 --------------------------------------------------------------------------------
 Trust Radius=3.00D-01 FncErr=1.00D-07 GrdErr=1.00D-06 EigMax=2.50D+02 EigMin=1.00D-04
 Number of steps in this run=    100 maximum allowed number of steps=    100.
 Search for a saddle point of order  1.
 GradGradGradGradGradGradGradGradGradGradGradGradGradGradGradGradGradGrad

                          Input orientation:                          
 ---------------------------------------------------------------------
 Center     Atomic      Atomic             Coordinates (Angstroms)
 Number     Number       Type             X           Y           Z
 ---------------------------------------------------------------------
      1          8           0        0.044572    4.630544    3.808448
      2         17           0        0.061403    4.145175    1.399773
      3          1           0       -0.757523    5.113196    3.971179
 ---------------------------------------------------------------------
                    Distance matrix (angstroms):
                    1          2          3
     1  O    0.000000
     2  Cl   2.457149   0.000000
     3  H    0.950153   2.867026   0.000000
 Stoichiometry    ClHO
 Framework group  CS[SG(ClHO)]
 Deg. of freedom     3
 Full point group                 CS      NOp   2
 Largest Abelian subgroup         CS      NOp   2
 Largest concise Abelian subgroup C1      NOp   1
                         Standard orientation:                         
 ---------------------------------------------------------------------
 Center     Atomic      Atomic             Coordinates (Angstroms)
 Number     Number       Type             X           Y           Z
 ---------------------------------------------------------------------
      1          8           0        0.035146    1.596584    0.000000
      2         17           0        0.035146   -0.860565    0.000000
      3          1           0       -0.878641    1.856939    0.000000
 ---------------------------------------------------------------------
 Rotational constants (GHZ):         647.4301886           7.2144996           7.1349923
 Standard basis: SVP (5D, 7F)
 There are    29 symmetry adapted cartesian basis functions of A'  symmetry.
 There are    10 symmetry adapted cartesian basis functions of A"  symmetry.
 There are    27 symmetry adapted basis functions of A'  symmetry.
 There are    10 symmetry adapted basis functions of A"  symmetry.
    37 basis functions,    69 primitive gaussians,    39 cartesian basis functions
    13 alpha electrons       13 beta electrons
       nuclear repulsion energy        36.8825344521 Hartrees.
 NAtoms=    3 NActive=    3 NUniq=    3 SFac= 1.00D+00 NAtFMM=   60 NAOKFM=F Big=F
 Integral buffers will be    131072 words long.
 Raffenetti 2 integral format.
 Two-electron integral symmetry is turned on.
 Nuclear repulsion after empirical dispersion term =       36.8809667529 Hartrees.
 One-electron integrals computed using PRISM.
 NBasis=    37 RedAO= T EigKep=  5.20D-02  NBF=    27    10
 NBsUse=    37 1.00D-06 EigRej= -1.00D+00 NBFU=    27    10
 ExpMin= 1.22D-01 ExpMax= 1.04D+04 ExpMxC= 1.57D+03 IAcc=3 IRadAn=         5 AccDes= 0.00D+00
 Harris functional with IExCor=  402 and IRadAn=       5 diagonalized for initial guess.
 HarFok:  IExCor=  402 AccDes= 0.00D+00 IRadAn=         5 IDoV= 1 UseB2=F ITyADJ=14
 ICtDFT=  3500011 ScaDFX=  1.000000  1.000000  1.000000  1.000000
 FoFCou: FMM=F IPFlag=           0 FMFlag=      100000 FMFlg1=           0
         NFxFlg=           0 DoJE=T BraDBF=F KetDBF=T FulRan=T
         wScrn=  0.000000 ICntrl=       500 IOpCl=  0 I1Cent=   200000004 NGrid=           0
         NMat0=    1 NMatS0=      1 NMatT0=    0 NMatD0=    1 NMtDS0=    0 NMtDT0=    0
 Petite list used in FoFCou.
 Initial guess orbital symmetries:
       Occupied  (A') (A') (A') (A') (A') (A") (A') (A') (A') (A')
                 (A") (A') (A")
       Virtual   (A') (A') (A') (A') (A') (A') (A") (A') (A") (A')
                 (A") (A') (A') (A") (A') (A') (A") (A') (A') (A")
                 (A') (A") (A') (A')
 The electronic state of the initial guess is 1-A'.
 Keep R1 ints in memory in symmetry-blocked form, NReq=7153137.
 Requested convergence on RMS density matrix=1.00D-08 within 128 cycles.
 Requested convergence on MAX density matrix=1.00D-06.
 Requested convergence on             energy=1.00D-06.
 No special actions if energy rises.
 Integral accuracy reduced to 1.0D-05 until final iterations.
 EnCoef did   100 forward-backward iterations
 Initial convergence to 1.0D-05 achieved.  Increase integral accuracy.
 SCF Done:  E(RB3LYP) =  -535.680212459     A.U. after   16 cycles
            NFock= 16  Conv=0.47D-08     -V/T= 2.0031
 DoSCS=F DFT=T ScalE2(SS,OS)=  1.000000  1.000000
 Range of M.O.s used for correlation:     1    37
 NBasis=    37 NAE=    13 NBE=    13 NFC=     0 NFV=     0
 NROrb=     37 NOA=    13 NOB=    13 NVA=    24 NVB=    24

 **** Warning!!: The smallest alpha delta epsilon is  0.89897590D-01

 Symmetrizing basis deriv contribution to polar:
 IMax=3 JMax=2 DiffMx= 0.00D+00
 G2DrvN: will do     4 centers at a time, making    1 passes.
 Calling FoFCou, ICntrl=  3107 FMM=F I1Cent=   0 AccDes= 0.00D+00.
 End of G2Drv F.D. properties file   721 does not exist.
 End of G2Drv F.D. properties file   722 does not exist.
 End of G2Drv F.D. properties file   788 does not exist.
          IDoAtm=111
          Differentiating once with respect to nuclear coordinates.
 Keep R1 ints in memory in symmetry-blocked form, NReq=7127949.
          There are    12 degrees of freedom in the 1st order CPHF.  IDoFFX=6 NUNeed=     0.
      6 vectors produced by pass  0 Test12= 2.60D-15 8.33D-09 XBig12= 9.24D-02 2.29D-01.
 AX will form     6 AO Fock derivatives at one time.
      6 vectors produced by pass  1 Test12= 2.60D-15 8.33D-09 XBig12= 2.70D-01 2.05D-01.
      6 vectors produced by pass  2 Test12= 2.60D-15 8.33D-09 XBig12= 1.25D-02 3.84D-02.
      6 vectors produced by pass  3 Test12= 2.60D-15 8.33D-09 XBig12= 1.70D-04 5.24D-03.
      6 vectors produced by pass  4 Test12= 2.60D-15 8.33D-09 XBig12= 1.54D-06 5.50D-04.
      6 vectors produced by pass  5 Test12= 2.60D-15 8.33D-09 XBig12= 3.28D-09 2.25D-05.
      3 vectors produced by pass  6 Test12= 2.60D-15 8.33D-09 XBig12= 2.70D-12 8.03D-07.
      1 vectors produced by pass  7 Test12= 2.60D-15 8.33D-09 XBig12= 1.26D-15 9.87D-09.
 InvSVY:  IOpt=1 It=  1 EMax= 2.22D-16
 Solved reduced A of dimension    40 with     6 vectors.
 End of Minotr F.D. properties file   721 does not exist.
 End of Minotr F.D. properties file   722 does not exist.
 End of Minotr F.D. properties file   788 does not exist.

 **********************************************************************

            Population analysis using the SCF density.

 **********************************************************************

 Orbital symmetries:
       Occupied  (A') (A') (A') (A') (A') (A") (A') (A') (A') (A')
                 (A") (A') (A")
       Virtual   (A') (A') (A') (A') (A') (A") (A') (A') (A") (A')
                 (A") (A') (A') (A") (A') (A') (A") (A') (A') (A")
                 (A') (A') (A") (A')
 The electronic state is 1-A'.
 Alpha  occ. eigenvalues -- -101.54684 -19.22049  -9.49462  -7.26821  -7.25213
 Alpha  occ. eigenvalues --   -7.25204  -0.98864  -0.80257  -0.47881  -0.37376
 Alpha  occ. eigenvalues --   -0.34762  -0.32824  -0.32060
 Alpha virt. eigenvalues --   -0.23070   0.05586   0.45187   0.57372   0.67900
 Alpha virt. eigenvalues --    0.73470   0.73501   0.76843   0.76849   0.82324
 Alpha virt. eigenvalues --    0.82839   0.85049   0.92843   0.93729   1.01732
 Alpha virt. eigenvalues --    1.21319   1.40251   1.47948   2.19563   2.58170
 Alpha virt. eigenvalues --    2.60587   2.93095   2.95260   3.65826
          Condensed to atoms (all electrons):
               1          2          3
     1  O    7.778713   0.116209   0.288319
     2  Cl   0.116209  16.888067   0.001280
     3  H    0.288319   0.001280   0.521604
 Mulliken charges:
               1
     1  O   -0.183241
     2  Cl  -0.005556
     3  H    0.188796
 Sum of Mulliken charges =  -0.00000
 Mulliken charges with hydrogens summed into heavy atoms:
               1
     1  O    0.005556
     2  Cl  -0.005556
 APT charges:
               1
     1  O   -0.445007
     2  Cl  -0.037657
     3  H    0.482663
 Sum of APT charges =  -0.00000
 APT charges with hydrogens summed into heavy atoms:
               1
     1  O    0.037657
     2  Cl  -0.037657
 Electronic spatial extent (au):  <R**2>=            169.8462
 Charge=             -0.0000 electrons
 Dipole moment (field-independent basis, Debye):
    X=             -1.6256    Y=              0.4757    Z=              0.0000  Tot=              1.6937
 Quadrupole moment (field-independent basis, Debye-Ang):
   XX=            -16.9132   YY=            -13.8647   ZZ=            -18.8310
   XY=             -3.2299   XZ=              0.0000   YZ=              0.0000
 Traceless Quadrupole moment (field-independent basis, Debye-Ang):
   XX=             -0.3769   YY=              2.6716   ZZ=             -2.2947
   XY=             -3.2299   XZ=              0.0000   YZ=              0.0000
 Octapole moment (field-independent basis, Debye-Ang**2):
  XXX=             -1.9426  YYY=              6.4999  ZZZ=             -0.0000  XYY=             -5.8236
  XXY=              4.1136  XXZ=             -0.0000  XZZ=             -0.2511  YZZ=              0.6803
  YYZ=              0.0000  XYZ=             -0.0000
 Hexadecapole moment (field-independent basis, Debye-Ang**3):
 XXXX=            -17.2275 YYYY=           -130.2173 ZZZZ=            -16.8976 XXXY=             -0.2020
 XXXZ=              0.0000 YYYX=             -8.7805 YYYZ=              0.0000 ZZZX=              0.0000
 ZZZY=              0.0000 XXYY=            -24.5075 XXZZ=             -5.9273 YYZZ=            -30.4640
 XXYZ=              0.0000 YYXZ=             -0.0000 ZZXY=              0.7090
 N-N= 3.688096675285D+01 E-N=-1.346512976244D+03  KE= 5.340236726377D+02
 Symmetry A'   KE= 4.832749920585D+02
 Symmetry A"   KE= 5.074868057918D+01
  Exact polarizability:   0.000   0.000   0.000   0.000   0.000   0.000
 Approx polarizability:  13.535  -1.954 158.674  -0.000  -0.000   9.408
 Calling FoFJK, ICntrl=    100147 FMM=F ISym2X=1 I1Cent= 0 IOpClX= 0 NMat=1 NMatS=1 NMatT=0.
 ***** Axes restored to original set *****
 -------------------------------------------------------------------
 Center     Atomic                   Forces (Hartrees/Bohr)
 Number     Number              X              Y              Z
 -------------------------------------------------------------------
      1        8           0.034869836   -0.029996038   -0.052693110
      2       17          -0.005001104    0.014739848    0.060384259
      3        1          -0.029868732    0.015256191   -0.007691148
 -------------------------------------------------------------------
 Cartesian Forces:  Max     0.060384259 RMS     0.033274633
 FormGI is forming the generalized inverse of G from B-inverse, IUseBI=4.

 GradGradGradGradGradGradGradGradGradGradGradGradGradGradGradGradGradGrad
 Berny optimization.
 Internal  Forces:  Max     0.062138886 RMS     0.042627072
 Search for a saddle point.
 Step number   1 out of a maximum of  100
 All quantities printed in internal units (Hartrees-Bohrs-Radians)
 Swapping is turned off.
 Second derivative matrix not updated -- analytic derivatives used.
 The second derivative matrix:
                          R1        R2        A1
           R1          -0.02143
           R2          -0.00167   0.60296
           A1          -0.00864  -0.00174   0.07147
 ITU=  0
     Eigenvalues ---   -0.02223   0.07226   0.60297
 Eigenvectors required to have negative eigenvalues:
                          R1        A1        R2
   1                    0.99577   0.09188   0.00291
 RFO step:  Lambda0=5.385549874D-02 Lambda=-5.97420471D-03.
 Linear search not attempted -- option 19 set.
 Maximum step size (   0.300) exceeded in Quadratic search.
    -- Step size scaled by   0.343
 Iteration  1 RMS(Cart)=  0.08392974 RMS(Int)=  0.05464465
 Iteration  2 RMS(Cart)=  0.04354066 RMS(Int)=  0.00003635
 Iteration  3 RMS(Cart)=  0.00004650 RMS(Int)=  0.00000000
 Iteration  4 RMS(Cart)=  0.00000000 RMS(Int)=  0.00000000
 ClnCor:  largest displacement from symmetrization is 2.66D-15 for atom     3.
 Variable       Old X    -DE/DX   Delta X   Delta X   Delta X     New X
                                 (Linear)    (Quad)   (Total)
    R1        4.64334  -0.06214   0.00000   0.29458   0.29458   4.93792
    R2        1.79553   0.03165   0.00000   0.01856   0.01856   1.81409
    A1        1.84836  -0.02426   0.00000  -0.05364  -0.05364   1.79473
         Item               Value     Threshold  Converged?
 Maximum Force            0.062139     0.000450     NO 
 RMS     Force            0.042627     0.000300     NO 
 Maximum Displacement     0.162613     0.001800     NO 
 RMS     Displacement     0.124913     0.001200     NO 
 Predicted change in Energy= 1.582278D-02
 GradGradGradGradGradGradGradGradGradGradGradGradGradGradGradGradGradGrad

                          Input orientation:                          
 ---------------------------------------------------------------------
 Center     Atomic      Atomic             Coordinates (Angstroms)
 Number     Number       Type             X           Y           Z
 ---------------------------------------------------------------------
      1          8           0        0.051088    4.640111    3.875393
      2         17           0        0.067379    4.124816    1.313722
      3          1           0       -0.770016    5.123987    3.990285
 ---------------------------------------------------------------------
                    Distance matrix (angstroms):
                    1          2          3
     1  O    0.000000
     2  Cl   2.613035   0.000000
     3  H    0.959973   2.977173   0.000000
 Stoichiometry    ClHO
 Framework group  CS[SG(ClHO)]
 Deg. of freedom     3
 Full point group                 CS      NOp   2
 Largest Abelian subgroup         CS      NOp   2
 Largest concise Abelian subgroup C1      NOp   1
                         Standard orientation:                         
 ---------------------------------------------------------------------
 Center     Atomic      Atomic             Coordinates (Angstroms)
 Number     Number       Type             X           Y           Z
 ---------------------------------------------------------------------
      1          8           0        0.036000    1.700324   -0.000000
      2         17           0        0.036000   -0.912711   -0.000000
      3          1           0       -0.900004    1.913498    0.000000
 ---------------------------------------------------------------------
 Rotational constants (GHZ):         615.0112799           6.4006279           6.3347006
 Standard basis: SVP (5D, 7F)
 There are    29 symmetry adapted cartesian basis functions of A'  symmetry.
 There are    10 symmetry adapted cartesian basis functions of A"  symmetry.
 There are    27 symmetry adapted basis functions of A'  symmetry.
 There are    10 symmetry adapted basis functions of A"  symmetry.
    37 basis functions,    69 primitive gaussians,    39 cartesian basis functions
    13 alpha electrons       13 beta electrons
       nuclear repulsion energy        34.9735556599 Hartrees.
 NAtoms=    3 NActive=    3 NUniq=    3 SFac= 1.00D+00 NAtFMM=   60 NAOKFM=F Big=F
 Integral buffers will be    131072 words long.
 Raffenetti 2 integral format.
 Two-electron integral symmetry is turned on.
 Nuclear repulsion after empirical dispersion term =       34.9720513697 Hartrees.
 One-electron integrals computed using PRISM.
 NBasis=    37 RedAO= T EigKep=  5.33D-02  NBF=    27    10
 NBsUse=    37 1.00D-06 EigRej= -1.00D+00 NBFU=    27    10
 Initial guess from the checkpoint file:  "/tmp/Gau-12489.chk"
 B after Tr=     0.000000   -0.000000   -0.000000
         Rot=    1.000000   -0.000000    0.000000    0.000132 Ang=   0.02 deg.
 Initial guess orbital symmetries:
       Occupied  (A') (A') (A') (A') (A') (A") (A') (A') (A') (A')
                 (A") (A') (A")
       Virtual   (A') (A') (A') (A') (A') (A") (A') (A') (A") (A')
                 (A") (A') (A') (A") (A') (A') (A") (A') (A') (A")
                 (A') (A') (A") (A')
 ExpMin= 1.22D-01 ExpMax= 1.04D+04 ExpMxC= 1.57D+03 IAcc=2 IRadAn=         4 AccDes= 0.00D+00
 Harris functional with IExCor=  402 and IRadAn=       4 diagonalized for initial guess.
 HarFok:  IExCor=  402 AccDes= 0.00D+00 IRadAn=         4 IDoV= 1 UseB2=F ITyADJ=14
 ICtDFT=  3500011 ScaDFX=  1.000000  1.000000  1.000000  1.000000
 FoFCou: FMM=F IPFlag=           0 FMFlag=      100000 FMFlg1=           0
         NFxFlg=           0 DoJE=T BraDBF=F KetDBF=T FulRan=T
         wScrn=  0.000000 ICntrl=       500 IOpCl=  0 I1Cent=   200000004 NGrid=           0
         NMat0=    1 NMatS0=      1 NMatT0=    0 NMatD0=    1 NMtDS0=    0 NMtDT0=    0
 Petite list used in FoFCou.
 Keep R1 ints in memory in symmetry-blocked form, NReq=7153137.
 Requested convergence on RMS density matrix=1.00D-08 within 128 cycles.
 Requested convergence on MAX density matrix=1.00D-06.
 Requested convergence on             energy=1.00D-06.
 No special actions if energy rises.
 Integral accuracy reduced to 1.0D-05 until final iterations.
 Initial convergence to 1.0D-05 achieved.  Increase integral accuracy.
 SCF Done:  E(RB3LYP) =  -535.664477918     A.U. after   14 cycles
            NFock= 14  Conv=0.80D-08     -V/T= 2.0031
 Calling FoFJK, ICntrl=      2127 FMM=F ISym2X=1 I1Cent= 0 IOpClX= 0 NMat=1 NMatS=1 NMatT=0.
 ***** Axes restored to original set *****
 -------------------------------------------------------------------
 Center     Atomic                   Forces (Hartrees/Bohr)
 Number     Number              X              Y              Z
 -------------------------------------------------------------------
      1        8           0.023573778   -0.022464139   -0.046683294
      2       17          -0.003602598    0.012703670    0.054054277
      3        1          -0.019971180    0.009760468   -0.007370983
 -------------------------------------------------------------------
 Cartesian Forces:  Max     0.054054277 RMS     0.027657355

 GradGradGradGradGradGradGradGradGradGradGradGradGradGradGradGradGradGrad
 Berny optimization.
 FormGI is forming the generalized inverse of G from B-inverse, IUseBI=4.
 Internal  Forces:  Max     0.055519464 RMS     0.035895555
 Search for a saddle point.
 Step number   2 out of a maximum of  100
 All quantities printed in internal units (Hartrees-Bohrs-Radians)
 Swapping is turned off.
 Update second derivatives using D2CorX and points    1    2
 The second derivative matrix:
                          R1        R2        A1
           R1          -0.02361
           R2          -0.00246   0.60272
           A1          -0.00711  -0.00127   0.07053
 ITU=  0  0
     Eigenvalues ---   -0.02415   0.07107   0.60273
 Eigenvectors required to have negative eigenvalues:
                          R1        A1        R2
   1                    0.99718   0.07489   0.00407
 RFO step:  Lambda0=4.584838871D-02 Lambda=-3.42490830D-03.
 Linear search not attempted -- option 19 set.
 Maximum step size (   0.300) exceeded in Quadratic search.
    -- Step size scaled by   0.361
 Iteration  1 RMS(Cart)=  0.08348541 RMS(Int)=  0.05550880
 Iteration  2 RMS(Cart)=  0.04442246 RMS(Int)=  0.00003238
 Iteration  3 RMS(Cart)=  0.00004276 RMS(Int)=  0.00000000
 Iteration  4 RMS(Cart)=  0.00000000 RMS(Int)=  0.00000000
 ClnCor:  largest displacement from symmetrization is 1.95D-15 for atom     1.
 Variable       Old X    -DE/DX   Delta X   Delta X   Delta X     New X
                                 (Linear)    (Quad)   (Total)
    R1        4.93792  -0.05552   0.00000   0.29609   0.29609   5.23401
    R2        1.81409   0.02112   0.00000   0.01377   0.01377   1.82785
    A1        1.79473  -0.01836   0.00000  -0.04627  -0.04627   1.74846
         Item               Value     Threshold  Converged?
 Maximum Force            0.055519     0.000450     NO 
 RMS     Force            0.035896     0.000300     NO 
 Maximum Displacement     0.165442     0.001800     NO 
 RMS     Displacement     0.125866     0.001200     NO 
 Predicted change in Energy= 1.448451D-02
 GradGradGradGradGradGradGradGradGradGradGradGradGradGradGradGradGradGrad

                          Input orientation:                          
 ---------------------------------------------------------------------
 Center     Atomic      Atomic             Coordinates (Angstroms)
 Number     Number       Type             X           Y           Z
 ---------------------------------------------------------------------
      1          8           0        0.054573    4.651149    3.941162
      2         17           0        0.074332    4.103613    1.226174
      3          1           0       -0.780453    5.134152    4.012064
 ---------------------------------------------------------------------
                    Distance matrix (angstroms):
                    1          2          3
     1  O    0.000000
     2  Cl   2.769720   0.000000
     3  H    0.967258   3.090931   0.000000
 Stoichiometry    ClHO
 Framework group  CS[SG(ClHO)]
 Deg. of freedom     3
 Full point group                 CS      NOp   2
 Largest Abelian subgroup         CS      NOp   2
 Largest concise Abelian subgroup C1      NOp   1
                         Standard orientation:                         
 ---------------------------------------------------------------------
 Center     Atomic      Atomic             Coordinates (Angstroms)
 Number     Number       Type             X           Y           Z
 ---------------------------------------------------------------------
      1          8           0        0.036617    1.804396    0.000000
      2         17           0        0.036617   -0.965324   -0.000000
      3          1           0       -0.915416    1.975338    0.000000
 ---------------------------------------------------------------------
 Rotational constants (GHZ):         592.9064424           5.7120308           5.6575265
 Standard basis: SVP (5D, 7F)
 There are    29 symmetry adapted cartesian basis functions of A'  symmetry.
 There are    10 symmetry adapted cartesian basis functions of A"  symmetry.
 There are    27 symmetry adapted basis functions of A'  symmetry.
 There are    10 symmetry adapted basis functions of A"  symmetry.
    37 basis functions,    69 primitive gaussians,    39 cartesian basis functions
    13 alpha electrons       13 beta electrons
       nuclear repulsion energy        33.2710694927 Hartrees.
 NAtoms=    3 NActive=    3 NUniq=    3 SFac= 1.00D+00 NAtFMM=   60 NAOKFM=F Big=F
 Integral buffers will be    131072 words long.
 Raffenetti 2 integral format.
 Two-electron integral symmetry is turned on.
 Nuclear repulsion after empirical dispersion term =       33.2696454368 Hartrees.
 One-electron integrals computed using PRISM.
 NBasis=    37 RedAO= T EigKep=  5.43D-02  NBF=    27    10
 NBsUse=    37 1.00D-06 EigRej= -1.00D+00 NBFU=    27    10
 Initial guess from the checkpoint file:  "/tmp/Gau-12489.chk"
 B after Tr=     0.000000    0.000000    0.000000
         Rot=    1.000000   -0.000000    0.000000    0.000308 Ang=   0.04 deg.
 Initial guess orbital symmetries:
       Occupied  (A') (A') (A') (A') (A') (A") (A') (A') (A') (A')
                 (A") (A') (A")
       Virtual   (A') (A') (A') (A') (A') (A") (A') (A') (A") (A')
                 (A") (A') (A') (A") (A') (A') (A") (A') (A') (A")
                 (A') (A') (A") (A')
 ExpMin= 1.22D-01 ExpMax= 1.04D+04 ExpMxC= 1.57D+03 IAcc=2 IRadAn=         4 AccDes= 0.00D+00
 Harris functional with IExCor=  402 and IRadAn=       4 diagonalized for initial guess.
 HarFok:  IExCor=  402 AccDes= 0.00D+00 IRadAn=         4 IDoV= 1 UseB2=F ITyADJ=14
 ICtDFT=  3500011 ScaDFX=  1.000000  1.000000  1.000000  1.000000
 FoFCou: FMM=F IPFlag=           0 FMFlag=      100000 FMFlg1=           0
         NFxFlg=           0 DoJE=T BraDBF=F KetDBF=T FulRan=T
         wScrn=  0.000000 ICntrl=       500 IOpCl=  0 I1Cent=   200000004 NGrid=           0
         NMat0=    1 NMatS0=      1 NMatT0=    0 NMatD0=    1 NMtDS0=    0 NMtDT0=    0
 Petite list used in FoFCou.
 Keep R1 ints in memory in symmetry-blocked form, NReq=7153137.
 Requested convergence on RMS density matrix=1.00D-08 within 128 cycles.
 Requested convergence on MAX density matrix=1.00D-06.
 Requested convergence on             energy=1.00D-06.
 No special actions if energy rises.
 Integral accuracy reduced to 1.0D-05 until final iterations.
 Initial convergence to 1.0D-05 achieved.  Increase integral accuracy.
 SCF Done:  E(RB3LYP) =  -535.650111815     A.U. after   16 cycles
            NFock= 16  Conv=0.14D-08     -V/T= 2.0030
 Calling FoFJK, ICntrl=      2127 FMM=F ISym2X=1 I1Cent= 0 IOpClX= 0 NMat=1 NMatS=1 NMatT=0.
 ***** Axes restored to original set *****
 -------------------------------------------------------------------
 Center     Atomic                   Forces (Hartrees/Bohr)
 Number     Number              X              Y              Z
 -------------------------------------------------------------------
      1        8           0.015605365   -0.016764235   -0.040486297
      2       17          -0.002650628    0.010754025    0.046892925
      3        1          -0.012954737    0.006010209   -0.006406628
 -------------------------------------------------------------------
 Cartesian Forces:  Max     0.046892925 RMS     0.022925777

 GradGradGradGradGradGradGradGradGradGradGradGradGradGradGradGradGradGrad
 Berny optimization.
 FormGI is forming the generalized inverse of G from B-inverse, IUseBI=4.
 Internal  Forces:  Max     0.048111224 RMS     0.029960352
 Search for a saddle point.
 Step number   3 out of a maximum of  100
 All quantities printed in internal units (Hartrees-Bohrs-Radians)
 Swapping is turned off.
 Update second derivatives using D2CorX and points    1    2    3
 The second derivative matrix:
                          R1        R2        A1
           R1          -0.02561
           R2          -0.00313   0.60258
           A1          -0.00467  -0.00075   0.06867
 ITU=  0  0  0
     Eigenvalues ---   -0.02585   0.06890   0.60260
 Eigenvectors required to have negative eigenvalues:
                          R1        A1        R2
   1                    0.99877   0.04943   0.00503
 RFO step:  Lambda0=3.742560270D-02 Lambda=-2.14432696D-03.
 Linear search not attempted -- option 19 set.
 Maximum step size (   0.300) exceeded in Quadratic search.
    -- Step size scaled by   0.382
 Iteration  1 RMS(Cart)=  0.08285459 RMS(Int)=  0.05556588
 Iteration  2 RMS(Cart)=  0.04455347 RMS(Int)=  0.00002896
 Iteration  3 RMS(Cart)=  0.00003916 RMS(Int)=  0.00000000
 Iteration  4 RMS(Cart)=  0.00000000 RMS(Int)=  0.00000000
 ClnCor:  largest displacement from symmetrization is 2.10D-15 for atom     1.
 Variable       Old X    -DE/DX   Delta X   Delta X   Delta X     New X
                                 (Linear)    (Quad)   (Total)
    R1        5.23401  -0.04811   0.00000   0.29619   0.29619   5.53020
    R2        1.82785   0.01372   0.00000   0.01023   0.01023   1.83808
    A1        1.74846  -0.01379   0.00000  -0.04655  -0.04655   1.70191
         Item               Value     Threshold  Converged?
 Maximum Force            0.048111     0.000450     NO 
 RMS     Force            0.029960     0.000300     NO 
 Maximum Displacement     0.164365     0.001800     NO 
 RMS     Displacement     0.125199     0.001200     NO 
 Predicted change in Energy= 1.250614D-02
 GradGradGradGradGradGradGradGradGradGradGradGradGradGradGradGradGradGrad

                          Input orientation:                          
 ---------------------------------------------------------------------
 Center     Atomic      Atomic             Coordinates (Angstroms)
 Number     Number       Type             X           Y           Z
 ---------------------------------------------------------------------
      1          8           0        0.056533    4.663136    4.007403
      2         17           0        0.081007    4.082678    1.139195
      3          1           0       -0.789089    5.143100    4.032801
 ---------------------------------------------------------------------
                    Distance matrix (angstroms):
                    1          2          3
     1  O    0.000000
     2  Cl   2.926457   0.000000
     3  H    0.972670   3.202268   0.000000
 Stoichiometry    ClHO
 Framework group  CS[SG(ClHO)]
 Deg. of freedom     3
 Full point group                 CS      NOp   2
 Largest Abelian subgroup         CS      NOp   2
 Largest concise Abelian subgroup C1      NOp   1
                         Standard orientation:                         
 ---------------------------------------------------------------------
 Center     Atomic      Atomic             Coordinates (Angstroms)
 Number     Number       Type             X           Y           Z
 ---------------------------------------------------------------------
      1          8           0        0.037089    1.908562    0.000000
      2         17           0        0.037089   -1.017895   -0.000000
      3          1           0       -0.927233    2.035726    0.000000
 ---------------------------------------------------------------------
 Rotational constants (GHZ):         576.5194157           5.1287300           5.0835070
 Standard basis: SVP (5D, 7F)
 There are    29 symmetry adapted cartesian basis functions of A'  symmetry.
 There are    10 symmetry adapted cartesian basis functions of A"  symmetry.
 There are    27 symmetry adapted basis functions of A'  symmetry.
 There are    10 symmetry adapted basis functions of A"  symmetry.
    37 basis functions,    69 primitive gaussians,    39 cartesian basis functions
    13 alpha electrons       13 beta electrons
       nuclear repulsion energy        31.7538619398 Hartrees.
 NAtoms=    3 NActive=    3 NUniq=    3 SFac= 1.00D+00 NAtFMM=   60 NAOKFM=F Big=F
 Integral buffers will be    131072 words long.
 Raffenetti 2 integral format.
 Two-electron integral symmetry is turned on.
 Nuclear repulsion after empirical dispersion term =       31.7525308612 Hartrees.
 One-electron integrals computed using PRISM.
 NBasis=    37 RedAO= T EigKep=  5.49D-02  NBF=    27    10
 NBsUse=    37 1.00D-06 EigRej= -1.00D+00 NBFU=    27    10
 Initial guess from the checkpoint file:  "/tmp/Gau-12489.chk"
 B after Tr=     0.000000   -0.000000   -0.000000
         Rot=    1.000000   -0.000000    0.000000    0.000338 Ang=   0.04 deg.
 Initial guess orbital symmetries:
       Occupied  (A') (A') (A') (A') (A') (A") (A') (A') (A') (A')
                 (A") (A') (A")
       Virtual   (A') (A') (A') (A') (A') (A") (A') (A") (A') (A')
                 (A") (A') (A') (A") (A') (A') (A") (A') (A') (A")
                 (A') (A') (A") (A')
 ExpMin= 1.22D-01 ExpMax= 1.04D+04 ExpMxC= 1.57D+03 IAcc=2 IRadAn=         4 AccDes= 0.00D+00
 Harris functional with IExCor=  402 and IRadAn=       4 diagonalized for initial guess.
 HarFok:  IExCor=  402 AccDes= 0.00D+00 IRadAn=         4 IDoV= 1 UseB2=F ITyADJ=14
 ICtDFT=  3500011 ScaDFX=  1.000000  1.000000  1.000000  1.000000
 FoFCou: FMM=F IPFlag=           0 FMFlag=      100000 FMFlg1=           0
         NFxFlg=           0 DoJE=T BraDBF=F KetDBF=T FulRan=T
         wScrn=  0.000000 ICntrl=       500 IOpCl=  0 I1Cent=   200000004 NGrid=           0
         NMat0=    1 NMatS0=      1 NMatT0=    0 NMatD0=    1 NMtDS0=    0 NMtDT0=    0
 Petite list used in FoFCou.
 Keep R1 ints in memory in symmetry-blocked form, NReq=7153137.
 Requested convergence on RMS density matrix=1.00D-08 within 128 cycles.
 Requested convergence on MAX density matrix=1.00D-06.
 Requested convergence on             energy=1.00D-06.
 No special actions if energy rises.
 Integral accuracy reduced to 1.0D-05 until final iterations.
 Initial convergence to 1.0D-05 achieved.  Increase integral accuracy.
 SCF Done:  E(RB3LYP) =  -535.637606358     A.U. after   16 cycles
            NFock= 16  Conv=0.10D-08     -V/T= 2.0030
 Calling FoFJK, ICntrl=      2127 FMM=F ISym2X=1 I1Cent= 0 IOpClX= 0 NMat=1 NMatS=1 NMatT=0.
 ***** Axes restored to original set *****
 -------------------------------------------------------------------
 Center     Atomic                   Forces (Hartrees/Bohr)
 Number     Number              X              Y              Z
 -------------------------------------------------------------------
      1        8           0.009822559   -0.012386166   -0.034766489
      2       17          -0.001923581    0.008963378    0.039896916
      3        1          -0.007898977    0.003422787   -0.005130427
 -------------------------------------------------------------------
 Cartesian Forces:  Max     0.039896916 RMS     0.018958567

 GradGradGradGradGradGradGradGradGradGradGradGradGradGradGradGradGradGrad
 Berny optimization.
 FormGI is forming the generalized inverse of G from B-inverse, IUseBI=4.
 Internal  Forces:  Max     0.040896863 RMS     0.024786801
 Search for a saddle point.
 Step number   4 out of a maximum of  100
 All quantities printed in internal units (Hartrees-Bohrs-Radians)
 Swapping is turned off.
 Update second derivatives using D2CorX and points    2    3    4
 The second derivative matrix:
                          R1        R2        A1
           R1          -0.02459
           R2          -0.00304   0.60258
           A1          -0.00212  -0.00066   0.06805
 ITU=  0  0  0  0
     Eigenvalues ---   -0.02465   0.06810   0.60260
 Eigenvectors required to have negative eigenvalues:
                          R1        A1        R2
   1                    0.99973   0.02292   0.00487
 RFO step:  Lambda0=3.055806408D-02 Lambda=-1.29930573D-03.
 Linear search not attempted -- option 19 set.
 Maximum step size (   0.300) exceeded in Quadratic search.
    -- Step size scaled by   0.397
 Iteration  1 RMS(Cart)=  0.08254443 RMS(Int)=  0.05576137
 Iteration  2 RMS(Cart)=  0.04481239 RMS(Int)=  0.00002581
 Iteration  3 RMS(Cart)=  0.00003565 RMS(Int)=  0.00000000
 Iteration  4 RMS(Cart)=  0.00000000 RMS(Int)=  0.00000000
 ClnCor:  largest displacement from symmetrization is 2.60D-15 for atom     3.
 Variable       Old X    -DE/DX   Delta X   Delta X   Delta X     New X
                                 (Linear)    (Quad)   (Total)
    R1        5.53020  -0.04090   0.00000   0.29653   0.29653   5.82674
    R2        1.83808   0.00842   0.00000   0.00706   0.00706   1.84514
    A1        1.70191  -0.00998   0.00000  -0.04491  -0.04491   1.65699
         Item               Value     Threshold  Converged?
 Maximum Force            0.040897     0.000450     NO 
 RMS     Force            0.024787     0.000300     NO 
 Maximum Displacement     0.164620     0.001800     NO 
 RMS     Displacement     0.125185     0.001200     NO 
 Predicted change in Energy= 1.064431D-02
 GradGradGradGradGradGradGradGradGradGradGradGradGradGradGradGradGradGrad

                          Input orientation:                          
 ---------------------------------------------------------------------
 Center     Atomic      Atomic             Coordinates (Angstroms)
 Number     Number       Type             X           Y           Z
 ---------------------------------------------------------------------
      1          8           0        0.056726    4.676080    4.073460
      2         17           0        0.087797    4.061652    1.052082
      3          1           0       -0.796071    5.151182    4.053858
 ---------------------------------------------------------------------
                    Distance matrix (angstroms):
                    1          2          3
     1  O    0.000000
     2  Cl   3.083376   0.000000
     3  H    0.976406   3.313450   0.000000
 Stoichiometry    ClHO
 Framework group  CS[SG(ClHO)]
 Deg. of freedom     3
 Full point group                 CS      NOp   2
 Largest Abelian subgroup         CS      NOp   2
 Largest concise Abelian subgroup C1      NOp   1
                         Standard orientation:                         
 ---------------------------------------------------------------------
 Center     Atomic      Atomic             Coordinates (Angstroms)
 Number     Number       Type             X           Y           Z
 ---------------------------------------------------------------------
      1          8           0        0.037415    2.012821   -0.000000
      2         17           0        0.037415   -1.070556    0.000000
      3          1           0       -0.935366    2.096880   -0.000000
 ---------------------------------------------------------------------
 Rotational constants (GHZ):         565.3696720           4.6295244           4.5919235
 Standard basis: SVP (5D, 7F)
 There are    29 symmetry adapted cartesian basis functions of A'  symmetry.
 There are    10 symmetry adapted cartesian basis functions of A"  symmetry.
 There are    27 symmetry adapted basis functions of A'  symmetry.
 There are    10 symmetry adapted basis functions of A"  symmetry.
    37 basis functions,    69 primitive gaussians,    39 cartesian basis functions
    13 alpha electrons       13 beta electrons
       nuclear repulsion energy        30.3913947561 Hartrees.
 NAtoms=    3 NActive=    3 NUniq=    3 SFac= 1.00D+00 NAtFMM=   60 NAOKFM=F Big=F
 Integral buffers will be    131072 words long.
 Raffenetti 2 integral format.
 Two-electron integral symmetry is turned on.
 Nuclear repulsion after empirical dispersion term =       30.3901674126 Hartrees.
 One-electron integrals computed using PRISM.
 NBasis=    37 RedAO= T EigKep=  5.53D-02  NBF=    27    10
 NBsUse=    37 1.00D-06 EigRej= -1.00D+00 NBFU=    27    10
 Initial guess from the checkpoint file:  "/tmp/Gau-12489.chk"
 B after Tr=    -0.000000    0.000000    0.000000
         Rot=    1.000000   -0.000000    0.000000    0.000384 Ang=   0.04 deg.
 Initial guess orbital symmetries:
       Occupied  (A') (A') (A') (A') (A') (A") (A') (A') (A') (A')
                 (A") (A') (A")
       Virtual   (A') (A') (A') (A') (A') (A") (A') (A") (A') (A')
                 (A') (A") (A') (A") (A') (A') (A") (A') (A') (A")
                 (A') (A') (A") (A')
 ExpMin= 1.22D-01 ExpMax= 1.04D+04 ExpMxC= 1.57D+03 IAcc=2 IRadAn=         4 AccDes= 0.00D+00
 Harris functional with IExCor=  402 and IRadAn=       4 diagonalized for initial guess.
 HarFok:  IExCor=  402 AccDes= 0.00D+00 IRadAn=         4 IDoV= 1 UseB2=F ITyADJ=14
 ICtDFT=  3500011 ScaDFX=  1.000000  1.000000  1.000000  1.000000
 FoFCou: FMM=F IPFlag=           0 FMFlag=      100000 FMFlg1=           0
         NFxFlg=           0 DoJE=T BraDBF=F KetDBF=T FulRan=T
         wScrn=  0.000000 ICntrl=       500 IOpCl=  0 I1Cent=   200000004 NGrid=           0
         NMat0=    1 NMatS0=      1 NMatT0=    0 NMatD0=    1 NMtDS0=    0 NMtDT0=    0
 Petite list used in FoFCou.
 Keep R1 ints in memory in symmetry-blocked form, NReq=7153137.
 Requested convergence on RMS density matrix=1.00D-08 within 128 cycles.
 Requested convergence on MAX density matrix=1.00D-06.
 Requested convergence on             energy=1.00D-06.
 No special actions if energy rises.
 Integral accuracy reduced to 1.0D-05 until final iterations.
 Initial convergence to 1.0D-05 achieved.  Increase integral accuracy.
 SCF Done:  E(RB3LYP) =  -535.626890890     A.U. after   18 cycles
            NFock= 18  Conv=0.46D-08     -V/T= 2.0029
 Calling FoFJK, ICntrl=      2127 FMM=F ISym2X=1 I1Cent= 0 IOpClX= 0 NMat=1 NMatS=1 NMatT=0.
 ***** Axes restored to original set *****
 -------------------------------------------------------------------
 Center     Atomic                   Forces (Hartrees/Bohr)
 Number     Number              X              Y              Z
 -------------------------------------------------------------------
      1        8           0.005897531   -0.009189394   -0.029744471
      2       17          -0.001394522    0.007414780    0.033563151
      3        1          -0.004503009    0.001774614   -0.003818680
 -------------------------------------------------------------------
 Cartesian Forces:  Max     0.033563151 RMS     0.015724633

 GradGradGradGradGradGradGradGradGradGradGradGradGradGradGradGradGradGrad
 Berny optimization.
 FormGI is forming the generalized inverse of G from B-inverse, IUseBI=4.
 Internal  Forces:  Max     0.034380004 RMS     0.020447463
 Search for a saddle point.
 Step number   5 out of a maximum of  100
 All quantities printed in internal units (Hartrees-Bohrs-Radians)
 Swapping is turned off.
 Update second derivatives using D2CorX and points    3    4    5
 The second derivative matrix:
                          R1        R2        A1
           R1          -0.02188
           R2          -0.00245   0.60266
           A1           0.00022  -0.00044   0.06852
 ITU=  0  0  0  0
     Eigenvalues ---   -0.02189   0.06852   0.60267
 Eigenvectors required to have negative eigenvalues:
                          R1        R2        A1
   1                    0.99999   0.00392  -0.00244
 RFO step:  Lambda0=2.509871913D-02 Lambda=-7.58753671D-04.
 Linear search not attempted -- option 19 set.
 Maximum step size (   0.300) exceeded in Quadratic search.
    -- Step size scaled by   0.407
 Iteration  1 RMS(Cart)=  0.08252329 RMS(Int)=  0.05602409
 Iteration  2 RMS(Cart)=  0.04512406 RMS(Int)=  0.00002292
 Iteration  3 RMS(Cart)=  0.00003221 RMS(Int)=  0.00000000
 Iteration  4 RMS(Cart)=  0.00000000 RMS(Int)=  0.00000000
 ClnCor:  largest displacement from symmetrization is 2.67D-15 for atom     1.
 Variable       Old X    -DE/DX   Delta X   Delta X   Delta X     New X
                                 (Linear)    (Quad)   (Total)
    R1        5.82674  -0.03438   0.00000   0.29700   0.29700   6.12373
    R2        1.84514   0.00487   0.00000   0.00451   0.00451   1.84965
    A1        1.65699  -0.00697   0.00000  -0.04209  -0.04209   1.61490
         Item               Value     Threshold  Converged?
 Maximum Force            0.034380     0.000450     NO 
 RMS     Force            0.020447     0.000300     NO 
 Maximum Displacement     0.165830     0.001800     NO 
 RMS     Displacement     0.125662     0.001200     NO 
 Predicted change in Energy= 8.991169D-03
 GradGradGradGradGradGradGradGradGradGradGradGradGradGradGradGradGradGrad

                          Input orientation:                          
 ---------------------------------------------------------------------
 Center     Atomic      Atomic             Coordinates (Angstroms)
 Number     Number       Type             X           Y           Z
 ---------------------------------------------------------------------
      1          8           0        0.055186    4.689864    4.138849
      2         17           0        0.094961    4.040290    0.964329
      3          1           0       -0.801696    5.158760    4.076222
 ---------------------------------------------------------------------
                    Distance matrix (angstroms):
                    1          2          3
     1  O    0.000000
     2  Cl   3.240541   0.000000
     3  H    0.978791   3.426200   0.000000
 Stoichiometry    ClHO
 Framework group  CS[SG(ClHO)]
 Deg. of freedom     3
 Full point group                 CS      NOp   2
 Largest Abelian subgroup         CS      NOp   2
 Largest concise Abelian subgroup C1      NOp   1
                         Standard orientation:                         
 ---------------------------------------------------------------------
 Center     Atomic      Atomic             Coordinates (Angstroms)
 Number     Number       Type             X           Y           Z
 ---------------------------------------------------------------------
      1          8           0        0.037609    2.117155    0.000000
      2         17           0        0.037609   -1.123386   -0.000000
      3          1           0       -0.940230    2.160313    0.000000
 ---------------------------------------------------------------------
 Rotational constants (GHZ):         558.5617768           4.1986643           4.1673387
 Standard basis: SVP (5D, 7F)
 There are    29 symmetry adapted cartesian basis functions of A'  symmetry.
 There are    10 symmetry adapted cartesian basis functions of A"  symmetry.
 There are    27 symmetry adapted basis functions of A'  symmetry.
 There are    10 symmetry adapted basis functions of A"  symmetry.
    37 basis functions,    69 primitive gaussians,    39 cartesian basis functions
    13 alpha electrons       13 beta electrons
       nuclear repulsion energy        29.1594731049 Hartrees.
 NAtoms=    3 NActive=    3 NUniq=    3 SFac= 1.00D+00 NAtFMM=   60 NAOKFM=F Big=F
 Integral buffers will be    131072 words long.
 Raffenetti 2 integral format.
 Two-electron integral symmetry is turned on.
 Nuclear repulsion after empirical dispersion term =       29.1583567317 Hartrees.
 One-electron integrals computed using PRISM.
 NBasis=    37 RedAO= T EigKep=  5.56D-02  NBF=    27    10
 NBsUse=    37 1.00D-06 EigRej= -1.00D+00 NBFU=    27    10
 Initial guess from the checkpoint file:  "/tmp/Gau-12489.chk"
 B after Tr=     0.000000   -0.000000    0.000000
         Rot=    1.000000   -0.000000    0.000000    0.000426 Ang=   0.05 deg.
 Initial guess orbital symmetries:
       Occupied  (A') (A') (A') (A') (A') (A") (A') (A') (A') (A')
                 (A") (A') (A")
       Virtual   (A') (A') (A') (A') (A') (A") (A') (A") (A') (A')
                 (A') (A") (A') (A") (A') (A') (A") (A') (A') (A")
                 (A') (A') (A") (A')
 ExpMin= 1.22D-01 ExpMax= 1.04D+04 ExpMxC= 1.57D+03 IAcc=2 IRadAn=         4 AccDes= 0.00D+00
 Harris functional with IExCor=  402 and IRadAn=       4 diagonalized for initial guess.
 HarFok:  IExCor=  402 AccDes= 0.00D+00 IRadAn=         4 IDoV= 1 UseB2=F ITyADJ=14
 ICtDFT=  3500011 ScaDFX=  1.000000  1.000000  1.000000  1.000000
 FoFCou: FMM=F IPFlag=           0 FMFlag=      100000 FMFlg1=           0
         NFxFlg=           0 DoJE=T BraDBF=F KetDBF=T FulRan=T
         wScrn=  0.000000 ICntrl=       500 IOpCl=  0 I1Cent=   200000004 NGrid=           0
         NMat0=    1 NMatS0=      1 NMatT0=    0 NMatD0=    1 NMtDS0=    0 NMtDT0=    0
 Petite list used in FoFCou.
 Keep R1 ints in memory in symmetry-blocked form, NReq=7153137.
 Requested convergence on RMS density matrix=1.00D-08 within 128 cycles.
 Requested convergence on MAX density matrix=1.00D-06.
 Requested convergence on             energy=1.00D-06.
 No special actions if energy rises.
 Integral accuracy reduced to 1.0D-05 until final iterations.
 Initial convergence to 1.0D-05 achieved.  Increase integral accuracy.
 SCF Done:  E(RB3LYP) =  -535.617804247     A.U. after   20 cycles
            NFock= 20  Conv=0.78D-09     -V/T= 2.0029
 Calling FoFJK, ICntrl=      2127 FMM=F ISym2X=1 I1Cent= 0 IOpClX= 0 NMat=1 NMatS=1 NMatT=0.
 ***** Axes restored to original set *****
 -------------------------------------------------------------------
 Center     Atomic                   Forces (Hartrees/Bohr)
 Number     Number              X              Y              Z
 -------------------------------------------------------------------
      1        8           0.003407616   -0.006928383   -0.025379012
      2       17          -0.001024219    0.006115577    0.028040327
      3        1          -0.002383397    0.000812807   -0.002661315
 -------------------------------------------------------------------
 Cartesian Forces:  Max     0.028040327 RMS     0.013088764

 GradGradGradGradGradGradGradGradGradGradGradGradGradGradGradGradGradGrad
 Berny optimization.
 FormGI is forming the generalized inverse of G from B-inverse, IUseBI=4.
 Internal  Forces:  Max     0.028707744 RMS     0.016863364
 Search for a saddle point.
 Step number   6 out of a maximum of  100
 All quantities printed in internal units (Hartrees-Bohrs-Radians)
 Swapping is turned off.
 Second derivative matrix not updated -- analytic derivatives used.
 The second derivative matrix:
                          R1        R2        A1
           R1          -0.02188
           R2          -0.00245   0.60266
           A1           0.00022  -0.00044   0.06852
 ITU=  0  0  0  0
     Eigenvalues ---   -0.02189   0.06852   0.60267
 Eigenvectors required to have negative eigenvalues:
                          R1        R2        A1
   1                   -0.99999  -0.00392   0.00244
 RFO step:  Lambda0=1.975616596D-02 Lambda=-3.41115962D-04.
 Linear search not attempted -- option 19 set.
 Maximum step size (   0.300) exceeded in Quadratic search.
    -- Step size scaled by   0.433
 Iteration  1 RMS(Cart)=  0.08408962 RMS(Int)=  0.05683050
 Iteration  2 RMS(Cart)=  0.04589297 RMS(Int)=  0.00001997
 Iteration  3 RMS(Cart)=  0.00002847 RMS(Int)=  0.00000000
 Iteration  4 RMS(Cart)=  0.00000000 RMS(Int)=  0.00000000
 ClnCor:  largest displacement from symmetrization is 3.97D-15 for atom     3.
 Variable       Old X    -DE/DX   Delta X   Delta X   Delta X     New X
                                 (Linear)    (Quad)   (Total)
    R1        6.12373  -0.02871   0.00000   0.29841   0.29841   6.42215
    R2        1.84965   0.00265   0.00000   0.00313   0.00313   1.85278
    A1        1.61490  -0.00469   0.00000  -0.03066  -0.03066   1.58424
         Item               Value     Threshold  Converged?
 Maximum Force            0.028708     0.000450     NO 
 RMS     Force            0.016863     0.000300     NO 
 Maximum Displacement     0.172364     0.001800     NO 
 RMS     Displacement     0.128937     0.001200     NO 
 Predicted change in Energy= 7.471176D-03
 GradGradGradGradGradGradGradGradGradGradGradGradGradGradGradGradGradGrad

                          Input orientation:                          
 ---------------------------------------------------------------------
 Center     Atomic      Atomic             Coordinates (Angstroms)
 Number     Number       Type             X           Y           Z
 ---------------------------------------------------------------------
      1          8           0        0.051584    4.704168    4.201001
      2         17           0        0.103996    4.017194    0.873118
      3          1           0       -0.807129    5.167553    4.105281
 ---------------------------------------------------------------------
                    Distance matrix (angstroms):
                    1          2          3
     1  O    0.000000
     2  Cl   3.398454   0.000000
     3  H    0.980447   3.549697   0.000000
 Stoichiometry    ClHO
 Framework group  CS[SG(ClHO)]
 Deg. of freedom     3
 Full point group                 CS      NOp   2
 Largest Abelian subgroup         CS      NOp   2
 Largest concise Abelian subgroup C1      NOp   1
                         Standard orientation:                         
 ---------------------------------------------------------------------
 Center     Atomic      Atomic             Coordinates (Angstroms)
 Number     Number       Type             X           Y           Z
 ---------------------------------------------------------------------
      1          8           0        0.037706    2.221559   -0.000000
      2         17           0        0.037706   -1.176895   -0.000000
      3          1           0       -0.942652    2.234740    0.000000
 ---------------------------------------------------------------------
 Rotational constants (GHZ):         555.0456603           3.8220010           3.7958630
 Standard basis: SVP (5D, 7F)
 There are    29 symmetry adapted cartesian basis functions of A'  symmetry.
 There are    10 symmetry adapted cartesian basis functions of A"  symmetry.
 There are    27 symmetry adapted basis functions of A'  symmetry.
 There are    10 symmetry adapted basis functions of A"  symmetry.
    37 basis functions,    69 primitive gaussians,    39 cartesian basis functions
    13 alpha electrons       13 beta electrons
       nuclear repulsion energy        28.0288669394 Hartrees.
 NAtoms=    3 NActive=    3 NUniq=    3 SFac= 1.00D+00 NAtFMM=   60 NAOKFM=F Big=F
 Integral buffers will be    131072 words long.
 Raffenetti 2 integral format.
 Two-electron integral symmetry is turned on.
 Nuclear repulsion after empirical dispersion term =       28.0278662870 Hartrees.
 One-electron integrals computed using PRISM.
 NBasis=    37 RedAO= T EigKep=  5.57D-02  NBF=    27    10
 NBsUse=    37 1.00D-06 EigRej= -1.00D+00 NBFU=    27    10
 Initial guess from the checkpoint file:  "/tmp/Gau-12489.chk"
 B after Tr=    -0.000000   -0.000000   -0.000000
         Rot=    1.000000    0.000000   -0.000000    0.000511 Ang=   0.06 deg.
 Initial guess orbital symmetries:
       Occupied  (A') (A') (A') (A') (A') (A") (A') (A') (A') (A")
                 (A') (A') (A")
       Virtual   (A') (A') (A') (A') (A') (A") (A') (A') (A") (A')
                 (A') (A") (A') (A") (A') (A') (A') (A") (A') (A")
                 (A') (A') (A") (A')
 ExpMin= 1.22D-01 ExpMax= 1.04D+04 ExpMxC= 1.57D+03 IAcc=2 IRadAn=         4 AccDes= 0.00D+00
 Harris functional with IExCor=  402 and IRadAn=       4 diagonalized for initial guess.
 HarFok:  IExCor=  402 AccDes= 0.00D+00 IRadAn=         4 IDoV= 1 UseB2=F ITyADJ=14
 ICtDFT=  3500011 ScaDFX=  1.000000  1.000000  1.000000  1.000000
 FoFCou: FMM=F IPFlag=           0 FMFlag=      100000 FMFlg1=           0
         NFxFlg=           0 DoJE=T BraDBF=F KetDBF=T FulRan=T
         wScrn=  0.000000 ICntrl=       500 IOpCl=  0 I1Cent=   200000004 NGrid=           0
         NMat0=    1 NMatS0=      1 NMatT0=    0 NMatD0=    1 NMtDS0=    0 NMtDT0=    0
 Petite list used in FoFCou.
 Keep R1 ints in memory in symmetry-blocked form, NReq=7153137.
 Requested convergence on RMS density matrix=1.00D-08 within 128 cycles.
 Requested convergence on MAX density matrix=1.00D-06.
 Requested convergence on             energy=1.00D-06.
 No special actions if energy rises.
 Integral accuracy reduced to 1.0D-05 until final iterations.
 Initial convergence to 1.0D-05 achieved.  Increase integral accuracy.
 SCF Done:  E(RB3LYP) =  -535.610116373     A.U. after   19 cycles
            NFock= 19  Conv=0.16D-08     -V/T= 2.0028
 Calling FoFJK, ICntrl=      2127 FMM=F ISym2X=1 I1Cent= 0 IOpClX= 0 NMat=1 NMatS=1 NMatT=0.
 ***** Axes restored to original set *****
 -------------------------------------------------------------------
 Center     Atomic                   Forces (Hartrees/Bohr)
 Number     Number              X              Y              Z
 -------------------------------------------------------------------
      1        8           0.001761829   -0.005227490   -0.021448871
      2       17          -0.000800704    0.005040030    0.023232204
      3        1          -0.000961125    0.000187460   -0.001783333
 -------------------------------------------------------------------
 Cartesian Forces:  Max     0.023232204 RMS     0.010854606

 GradGradGradGradGradGradGradGradGradGradGradGradGradGradGradGradGradGrad
 Berny optimization.
 FormGI is forming the generalized inverse of G from B-inverse, IUseBI=4.
 Internal  Forces:  Max     0.023781280 RMS     0.013866042
 Search for a saddle point.
 Step number   7 out of a maximum of  100
 All quantities printed in internal units (Hartrees-Bohrs-Radians)
 Swapping is turned off.
 Update second derivatives using D2CorX and points    5    6    7
 The second derivative matrix:
                          R1        R2        A1
           R1          -0.01629
           R2          -0.00117   0.60289
           A1           0.00199  -0.00016   0.06895
 ITU=  0  0  0  0
     Eigenvalues ---   -0.01634   0.06900   0.60289
 Eigenvectors required to have negative eigenvalues:
                          R1        A1        R2
   1                    0.99973  -0.02332   0.00189
 RFO step:  Lambda0=1.689732584D-02 Lambda=-2.02189124D-04.
 Linear search not attempted -- option 19 set.
 Maximum step size (   0.300) exceeded in Quadratic search.
    -- Step size scaled by   0.420
 Iteration  1 RMS(Cart)=  0.08422005 RMS(Int)=  0.05690205
 Iteration  2 RMS(Cart)=  0.04600947 RMS(Int)=  0.00001770
 Iteration  3 RMS(Cart)=  0.00002550 RMS(Int)=  0.00000000
 Iteration  4 RMS(Cart)=  0.00000000 RMS(Int)=  0.00000000
 ClnCor:  largest displacement from symmetrization is 4.01D-15 for atom     1.
 Variable       Old X    -DE/DX   Delta X   Delta X   Delta X     New X
                                 (Linear)    (Quad)   (Total)
    R1        6.42215  -0.02378   0.00000   0.29854   0.29854   6.72069
    R2        1.85278   0.00111   0.00000   0.00136   0.00136   1.85413
    A1        1.58424  -0.00317   0.00000  -0.02952  -0.02952   1.55472
         Item               Value     Threshold  Converged?
 Maximum Force            0.023781     0.000450     NO 
 RMS     Force            0.013866     0.000300     NO 
 Maximum Displacement     0.172942     0.001800     NO 
 RMS     Displacement     0.129236     0.001200     NO 
 Predicted change in Energy= 6.291244D-03
 GradGradGradGradGradGradGradGradGradGradGradGradGradGradGradGradGradGrad

                          Input orientation:                          
 ---------------------------------------------------------------------
 Center     Atomic      Atomic             Coordinates (Angstroms)
 Number     Number       Type             X           Y           Z
 ---------------------------------------------------------------------
      1          8           0        0.046999    4.718939    4.262724
      2         17           0        0.113206    3.993939    0.781601
      3          1           0       -0.811753    5.176037    4.135075
 ---------------------------------------------------------------------
                    Distance matrix (angstroms):
                    1          2          3
     1  O    0.000000
     2  Cl   3.556435   0.000000
     3  H    0.981166   3.674057   0.000000
 Stoichiometry    ClHO
 Framework group  CS[SG(ClHO)]
 Deg. of freedom     3
 Full point group                 CS      NOp   2
 Largest Abelian subgroup         CS      NOp   2
 Largest concise Abelian subgroup C1      NOp   1
                         Standard orientation:                         
 ---------------------------------------------------------------------
 Center     Atomic      Atomic             Coordinates (Angstroms)
 Number     Number       Type             X           Y           Z
 ---------------------------------------------------------------------
      1          8           0        0.037732    2.325968    0.000000
      2         17           0        0.037732   -1.230467   -0.000000
      3          1           0       -0.943307    2.310191    0.000000
 ---------------------------------------------------------------------
 Rotational constants (GHZ):         553.7122788           3.4935383           3.4716347
 Standard basis: SVP (5D, 7F)
 There are    29 symmetry adapted cartesian basis functions of A'  symmetry.
 There are    10 symmetry adapted cartesian basis functions of A"  symmetry.
 There are    27 symmetry adapted basis functions of A'  symmetry.
 There are    10 symmetry adapted basis functions of A"  symmetry.
    37 basis functions,    69 primitive gaussians,    39 cartesian basis functions
    13 alpha electrons       13 beta electrons
       nuclear repulsion energy        26.9992278164 Hartrees.
 NAtoms=    3 NActive=    3 NUniq=    3 SFac= 1.00D+00 NAtFMM=   60 NAOKFM=F Big=F
 Integral buffers will be    131072 words long.
 Raffenetti 2 integral format.
 Two-electron integral symmetry is turned on.
 Nuclear repulsion after empirical dispersion term =       26.9983387355 Hartrees.
 One-electron integrals computed using PRISM.
 NBasis=    37 RedAO= T EigKep=  5.58D-02  NBF=    27    10
 NBsUse=    37 1.00D-06 EigRej= -1.00D+00 NBFU=    27    10
 Initial guess from the checkpoint file:  "/tmp/Gau-12489.chk"
 B after Tr=     0.000000    0.000000    0.000000
         Rot=    1.000000    0.000000   -0.000000    0.000503 Ang=   0.06 deg.
 Initial guess orbital symmetries:
       Occupied  (A') (A') (A') (A') (A') (A") (A') (A') (A') (A")
                 (A') (A') (A")
       Virtual   (A') (A') (A') (A') (A') (A") (A') (A') (A") (A')
                 (A') (A") (A') (A") (A') (A') (A') (A") (A') (A")
                 (A') (A') (A") (A')
 ExpMin= 1.22D-01 ExpMax= 1.04D+04 ExpMxC= 1.57D+03 IAcc=2 IRadAn=         4 AccDes= 0.00D+00
 Harris functional with IExCor=  402 and IRadAn=       4 diagonalized for initial guess.
 HarFok:  IExCor=  402 AccDes= 0.00D+00 IRadAn=         4 IDoV= 1 UseB2=F ITyADJ=14
 ICtDFT=  3500011 ScaDFX=  1.000000  1.000000  1.000000  1.000000
 FoFCou: FMM=F IPFlag=           0 FMFlag=      100000 FMFlg1=           0
         NFxFlg=           0 DoJE=T BraDBF=F KetDBF=T FulRan=T
         wScrn=  0.000000 ICntrl=       500 IOpCl=  0 I1Cent=   200000004 NGrid=           0
         NMat0=    1 NMatS0=      1 NMatT0=    0 NMatD0=    1 NMtDS0=    0 NMtDT0=    0
 Petite list used in FoFCou.
 Keep R1 ints in memory in symmetry-blocked form, NReq=7153137.
 Requested convergence on RMS density matrix=1.00D-08 within 128 cycles.
 Requested convergence on MAX density matrix=1.00D-06.
 Requested convergence on             energy=1.00D-06.
 No special actions if energy rises.
 Integral accuracy reduced to 1.0D-05 until final iterations.
 Initial convergence to 1.0D-05 achieved.  Increase integral accuracy.
 EnCoef did     5 forward-backward iterations
 SCF Done:  E(RB3LYP) =  -535.603742021     A.U. after   19 cycles
            NFock= 19  Conv=0.86D-08     -V/T= 2.0028
 Calling FoFJK, ICntrl=      2127 FMM=F ISym2X=1 I1Cent= 0 IOpClX= 0 NMat=1 NMatS=1 NMatT=0.
 ***** Axes restored to original set *****
 -------------------------------------------------------------------
 Center     Atomic                   Forces (Hartrees/Bohr)
 Number     Number              X              Y              Z
 -------------------------------------------------------------------
      1        8           0.000970526   -0.004092716   -0.017954982
      2       17          -0.000634505    0.004130066    0.019099190
      3        1          -0.000336021   -0.000037351   -0.001144209
 -------------------------------------------------------------------
 Cartesian Forces:  Max     0.019099190 RMS     0.008967449

 GradGradGradGradGradGradGradGradGradGradGradGradGradGradGradGradGradGrad
 Berny optimization.
 FormGI is forming the generalized inverse of G from B-inverse, IUseBI=4.
 Internal  Forces:  Max     0.019548688 RMS     0.011352048
 Search for a saddle point.
 Step number   8 out of a maximum of  100
 All quantities printed in internal units (Hartrees-Bohrs-Radians)
 Swapping is turned off.
 Update second derivatives using D2CorX and points    6    7    8
 The second derivative matrix:
                          R1        R2        A1
           R1          -0.01386
           R2          -0.00046   0.60304
           A1           0.00317   0.00006   0.06927
 ITU=  0  0  0  0
     Eigenvalues ---   -0.01398   0.06939   0.60304
 Eigenvectors required to have negative eigenvalues:
                          R1        A1        R2
   1                    0.99928  -0.03802   0.00075
 RFO step:  Lambda0=1.368218216D-02 Lambda=-1.13850574D-04.
 Linear search not attempted -- option 19 set.
 Maximum step size (   0.300) exceeded in Quadratic search.
    -- Step size scaled by   0.426
 Iteration  1 RMS(Cart)=  0.08438180 RMS(Int)=  0.05695484
 Iteration  2 RMS(Cart)=  0.04609873 RMS(Int)=  0.00001573
 Iteration  3 RMS(Cart)=  0.00002285 RMS(Int)=  0.00000000
 Iteration  4 RMS(Cart)=  0.00000000 RMS(Int)=  0.00000000
 ClnCor:  largest displacement from symmetrization is 3.08D-15 for atom     3.
 Variable       Old X    -DE/DX   Delta X   Delta X   Delta X     New X
                                 (Linear)    (Quad)   (Total)
    R1        6.72069  -0.01955   0.00000   0.29863   0.29863   7.01932
    R2        1.85413   0.00043   0.00000   0.00054   0.00054   1.85467
    A1        1.55472  -0.00207   0.00000  -0.02859  -0.02859   1.52613
         Item               Value     Threshold  Converged?
 Maximum Force            0.019549     0.000450     NO 
 RMS     Force            0.011352     0.000300     NO 
 Maximum Displacement     0.173495     0.001800     NO 
 RMS     Displacement     0.129533     0.001200     NO 
 Predicted change in Energy= 5.161725D-03
 GradGradGradGradGradGradGradGradGradGradGradGradGradGradGradGradGradGrad

                          Input orientation:                          
 ---------------------------------------------------------------------
 Center     Atomic      Atomic             Coordinates (Angstroms)
 Number     Number       Type             X           Y           Z
 ---------------------------------------------------------------------
      1          8           0        0.041700    4.734030    4.324043
      2         17           0        0.122575    3.970536    0.689791
      3          1           0       -0.815823    5.184347    4.165566
 ---------------------------------------------------------------------
                    Distance matrix (angstroms):
                    1          2          3
     1  O    0.000000
     2  Cl   3.714465   0.000000
     3  H    0.981451   3.799334   0.000000
 Stoichiometry    ClHO
 Framework group  CS[SG(ClHO)]
 Deg. of freedom     3
 Full point group                 CS      NOp   2
 Largest Abelian subgroup         CS      NOp   2
 Largest concise Abelian subgroup C1      NOp   1
                         Standard orientation:                         
 ---------------------------------------------------------------------
 Center     Atomic      Atomic             Coordinates (Angstroms)
 Number     Number       Type             X           Y           Z
 ---------------------------------------------------------------------
      1          8           0        0.037710    2.430374   -0.000000
      2         17           0        0.037710   -1.284091    0.000000
      3          1           0       -0.942761    2.386551   -0.000000
 ---------------------------------------------------------------------
 Rotational constants (GHZ):         553.8597196           3.2054526           3.1870079
 Standard basis: SVP (5D, 7F)
 There are    29 symmetry adapted cartesian basis functions of A'  symmetry.
 There are    10 symmetry adapted cartesian basis functions of A"  symmetry.
 There are    27 symmetry adapted basis functions of A'  symmetry.
 There are    10 symmetry adapted basis functions of A"  symmetry.
    37 basis functions,    69 primitive gaussians,    39 cartesian basis functions
    13 alpha electrons       13 beta electrons
       nuclear repulsion energy        26.0563057939 Hartrees.
 NAtoms=    3 NActive=    3 NUniq=    3 SFac= 1.00D+00 NAtFMM=   60 NAOKFM=F Big=F
 Integral buffers will be    131072 words long.
 Raffenetti 2 integral format.
 Two-electron integral symmetry is turned on.
 Nuclear repulsion after empirical dispersion term =       26.0555195791 Hartrees.
 One-electron integrals computed using PRISM.
 NBasis=    37 RedAO= T EigKep=  5.58D-02  NBF=    27    10
 NBsUse=    37 1.00D-06 EigRej= -1.00D+00 NBFU=    27    10
 Initial guess from the checkpoint file:  "/tmp/Gau-12489.chk"
 B after Tr=    -0.000000    0.000000    0.000000
         Rot=    1.000000    0.000000   -0.000000    0.000485 Ang=   0.06 deg.
 Initial guess orbital symmetries:
       Occupied  (A') (A') (A') (A') (A') (A") (A') (A') (A') (A")
                 (A') (A') (A")
       Virtual   (A') (A') (A') (A') (A') (A") (A') (A') (A") (A')
                 (A') (A") (A') (A") (A') (A') (A') (A") (A') (A")
                 (A') (A') (A") (A')
 ExpMin= 1.22D-01 ExpMax= 1.04D+04 ExpMxC= 1.57D+03 IAcc=2 IRadAn=         4 AccDes= 0.00D+00
 Harris functional with IExCor=  402 and IRadAn=       4 diagonalized for initial guess.
 HarFok:  IExCor=  402 AccDes= 0.00D+00 IRadAn=         4 IDoV= 1 UseB2=F ITyADJ=14
 ICtDFT=  3500011 ScaDFX=  1.000000  1.000000  1.000000  1.000000
 FoFCou: FMM=F IPFlag=           0 FMFlag=      100000 FMFlg1=           0
         NFxFlg=           0 DoJE=T BraDBF=F KetDBF=T FulRan=T
         wScrn=  0.000000 ICntrl=       500 IOpCl=  0 I1Cent=   200000004 NGrid=           0
         NMat0=    1 NMatS0=      1 NMatT0=    0 NMatD0=    1 NMtDS0=    0 NMtDT0=    0
 Petite list used in FoFCou.
 Keep R1 ints in memory in symmetry-blocked form, NReq=7153137.
 Requested convergence on RMS density matrix=1.00D-08 within 128 cycles.
 Requested convergence on MAX density matrix=1.00D-06.
 Requested convergence on             energy=1.00D-06.
 No special actions if energy rises.
 Integral accuracy reduced to 1.0D-05 until final iterations.
 Initial convergence to 1.0D-05 achieved.  Increase integral accuracy.
 SCF Done:  E(RB3LYP) =  -535.598510971     A.U. after   21 cycles
            NFock= 21  Conv=0.25D-08     -V/T= 2.0027
 Calling FoFJK, ICntrl=      2127 FMM=F ISym2X=1 I1Cent= 0 IOpClX= 0 NMat=1 NMatS=1 NMatT=0.
 ***** Axes restored to original set *****
 -------------------------------------------------------------------
 Center     Atomic                   Forces (Hartrees/Bohr)
 Number     Number              X              Y              Z
 -------------------------------------------------------------------
      1        8           0.000587961   -0.003258269   -0.014819210
      2       17          -0.000508137    0.003353114    0.015526143
      3        1          -0.000079824   -0.000094845   -0.000706933
 -------------------------------------------------------------------
 Cartesian Forces:  Max     0.015526143 RMS     0.007330672

 GradGradGradGradGradGradGradGradGradGradGradGradGradGradGradGradGradGrad
 Berny optimization.
 FormGI is forming the generalized inverse of G from B-inverse, IUseBI=4.
 Internal  Forces:  Max     0.015891043 RMS     0.009205942
 Search for a saddle point.
 Step number   9 out of a maximum of  100
 All quantities printed in internal units (Hartrees-Bohrs-Radians)
 Swapping is turned off.
 Update second derivatives using D2CorX and points    7    8    9
 The second derivative matrix:
                          R1        R2        A1
           R1          -0.01185
           R2          -0.00011   0.60309
           A1           0.00410   0.00018   0.06954
 ITU=  0  0  0  0
     Eigenvalues ---   -0.01206   0.06975   0.60309
 Eigenvectors required to have negative eigenvalues:
                          R1        A1        R2
   1                    0.99874  -0.05023   0.00019
 RFO step:  Lambda0=1.088620287D-02 Lambda=-6.33008199D-05.
 Linear search not attempted -- option 19 set.
 Maximum step size (   0.300) exceeded in Quadratic search.
    -- Step size scaled by   0.435
 Iteration  1 RMS(Cart)=  0.08447408 RMS(Int)=  0.05697892
 Iteration  2 RMS(Cart)=  0.04615677 RMS(Int)=  0.00001403
 Iteration  3 RMS(Cart)=  0.00002052 RMS(Int)=  0.00000000
 Iteration  4 RMS(Cart)=  0.00000000 RMS(Int)=  0.00000000
 ClnCor:  largest displacement from symmetrization is 4.99D-15 for atom     3.
 Variable       Old X    -DE/DX   Delta X   Delta X   Delta X     New X
                                 (Linear)    (Quad)   (Total)
    R1        7.01932  -0.01589   0.00000   0.29868   0.29868   7.31800
    R2        1.85467   0.00014   0.00000   0.00017   0.00017   1.85484
    A1        1.52613  -0.00131   0.00000  -0.02814  -0.02814   1.49799
         Item               Value     Threshold  Converged?
 Maximum Force            0.015891     0.000450     NO 
 RMS     Force            0.009206     0.000300     NO 
 Maximum Displacement     0.173804     0.001800     NO 
 RMS     Displacement     0.129701     0.001200     NO 
 Predicted change in Energy= 4.173819D-03
 GradGradGradGradGradGradGradGradGradGradGradGradGradGradGradGradGradGrad

                          Input orientation:                          
 ---------------------------------------------------------------------
 Center     Atomic      Atomic             Coordinates (Angstroms)
 Number     Number       Type             X           Y           Z
 ---------------------------------------------------------------------
      1          8           0        0.035850    4.749378    4.385089
      2         17           0        0.132033    3.947052    0.597818
      3          1           0       -0.819431    5.192485    4.196493
 ---------------------------------------------------------------------
                    Distance matrix (angstroms):
                    1          2          3
     1  O    0.000000
     2  Cl   3.872519   0.000000
     3  H    0.981538   3.925156   0.000000
 Stoichiometry    ClHO
 Framework group  CS[SG(ClHO)]
 Deg. of freedom     3
 Full point group                 CS      NOp   2
 Largest Abelian subgroup         CS      NOp   2
 Largest concise Abelian subgroup C1      NOp   1
                         Standard orientation:                         
 ---------------------------------------------------------------------
 Center     Atomic      Atomic             Coordinates (Angstroms)
 Number     Number       Type             X           Y           Z
 ---------------------------------------------------------------------
      1          8           0        0.037651    2.534777    0.000000
      2         17           0        0.037651   -1.337741   -0.000000
      3          1           0       -0.941287    2.463381    0.000000
 ---------------------------------------------------------------------
 Rotational constants (GHZ):         555.1551132           2.9514819           2.9358733
 Standard basis: SVP (5D, 7F)
 There are    29 symmetry adapted cartesian basis functions of A'  symmetry.
 There are    10 symmetry adapted cartesian basis functions of A"  symmetry.
 There are    27 symmetry adapted basis functions of A'  symmetry.
 There are    10 symmetry adapted basis functions of A"  symmetry.
    37 basis functions,    69 primitive gaussians,    39 cartesian basis functions
    13 alpha electrons       13 beta electrons
       nuclear repulsion energy        25.1892439893 Hartrees.
[...]
 Center     Atomic                   Forces (Hartrees/Bohr)
 Number     Number              X              Y              Z
 -------------------------------------------------------------------
      1        8           0.000233848   -0.001612365   -0.007495661
      2       17          -0.000268027    0.001662880    0.007654170
      3        1           0.000034179   -0.000050515   -0.000158509
 -------------------------------------------------------------------
 Cartesian Forces:  Max     0.007654170 RMS     0.003655916

 GradGradGradGradGradGradGradGradGradGradGradGradGradGradGradGradGradGrad
 Berny optimization.
 FormGI is forming the generalized inverse of G from B-inverse, IUseBI=4.
 Internal  Forces:  Max     0.007836294 RMS     0.004527873
 Search for a saddle point.
 Step number  12 out of a maximum of  100
 All quantities printed in internal units (Hartrees-Bohrs-Radians)
 Swapping is turned off.
 Update second derivatives using D2CorX and points   10   11   12
 The second derivative matrix:
                          R1        R2        A1
           R1          -0.00701
           R2           0.00010   0.60310
           A1           0.00545   0.00024   0.06991
 ITU=  0  0  0  0
     Eigenvalues ---   -0.00740   0.07029   0.60310
 Eigenvectors required to have negative eigenvalues:
                          R1        A1        R2
   1                    0.99752  -0.07038  -0.00014
 RFO step:  Lambda0=4.929377858D-03 Lambda=-1.05806848D-05.
 Linear search not attempted -- option 19 set.
 Maximum step size (   0.300) exceeded in Quadratic search.
    -- Step size scaled by   0.474
 Iteration  1 RMS(Cart)=  0.08481541 RMS(Int)=  0.05704267
 Iteration  2 RMS(Cart)=  0.04630056 RMS(Int)=  0.00001012
 Iteration  3 RMS(Cart)=  0.00001504 RMS(Int)=  0.00000000
 Iteration  4 RMS(Cart)=  0.00000000 RMS(Int)=  0.00000000
 ClnCor:  largest displacement from symmetrization is 4.16D-15 for atom     1.
 Variable       Old X    -DE/DX   Delta X   Delta X   Delta X     New X
                                 (Linear)    (Quad)   (Total)
    R1        7.91556  -0.00784   0.00000   0.29879   0.29879   8.21435
    R2        1.85484  -0.00002   0.00000  -0.00005  -0.00005   1.85479
    A1        1.44402  -0.00031   0.00000  -0.02691  -0.02691   1.41711
         Item               Value     Threshold  Converged?
 Maximum Force            0.007836     0.000450     NO 
 RMS     Force            0.004528     0.000300     NO 
 Maximum Displacement     0.174768     0.001800     NO 
 RMS     Displacement     0.130244     0.001200     NO 
 Predicted change in Energy= 2.001475D-03
 GradGradGradGradGradGradGradGradGradGradGradGradGradGradGradGradGradGrad

                          Input orientation:                          
 ---------------------------------------------------------------------
 Center     Atomic      Atomic             Coordinates (Angstroms)
 Number     Number       Type             X           Y           Z
 ---------------------------------------------------------------------
      1          8           0        0.015631    4.796540    4.566312
      2         17           0        0.161065    3.875963    0.320551
      3          1           0       -0.828244    5.216411    4.292537
 ---------------------------------------------------------------------
                    Distance matrix (angstroms):
                    1          2          3
     1  O    0.000000
     2  Cl   4.346849   0.000000
     3  H    0.981513   4.307227   0.000000
 Stoichiometry    ClHO
 Framework group  CS[SG(ClHO)]
 Deg. of freedom     3
 Full point group                 CS      NOp   2
 Largest Abelian subgroup         CS      NOp   2
 Largest concise Abelian subgroup C1      NOp   1
                         Standard orientation:                         
 ---------------------------------------------------------------------
 Center     Atomic      Atomic             Coordinates (Angstroms)
 Number     Number       Type             X           Y           Z
 ---------------------------------------------------------------------
      1          8           0        0.037306    2.847949   -0.000000
      2         17           0        0.037306   -1.498899    0.000000
      3          1           0       -0.932639    2.697696   -0.000000
 ---------------------------------------------------------------------
 Rotational constants (GHZ):         564.4251040           2.3469445           2.3372261
 Standard basis: SVP (5D, 7F)
 There are    29 symmetry adapted cartesian basis functions of A'  symmetry.
 There are    10 symmetry adapted cartesian basis functions of A"  symmetry.
 There are    27 symmetry adapted basis functions of A'  symmetry.
 There are    10 symmetry adapted basis functions of A"  symmetry.
    37 basis functions,    69 primitive gaussians,    39 cartesian basis functions
    13 alpha electrons       13 beta electrons
       nuclear repulsion energy        22.9581240336 Hartrees.
 NAtoms=    3 NActive=    3 NUniq=    3 SFac= 1.00D+00 NAtFMM=   60 NAOKFM=F Big=F
 Integral buffers will be    131072 words long.
 Raffenetti 2 integral format.
 Two-electron integral symmetry is turned on.
 Nuclear repulsion after empirical dispersion term =       22.9576282816 Hartrees.
 One-electron integrals computed using PRISM.
 NBasis=    37 RedAO= T EigKep=  5.59D-02  NBF=    27    10
 NBsUse=    37 1.00D-06 EigRej= -1.00D+00 NBFU=    27    10
 Initial guess from the checkpoint file:  "/tmp/Gau-12489.chk"
 B after Tr=    -0.000000   -0.000000   -0.000000
         Rot=    1.000000   -0.000000    0.000000    0.000400 Ang=   0.05 deg.
 Initial guess orbital symmetries:
       Occupied  (A') (A') (A') (A') (A') (A") (A') (A') (A') (A")
                 (A') (A") (A')
       Virtual   (A') (A') (A') (A') (A') (A') (A") (A') (A") (A')
                 (A') (A") (A') (A') (A") (A') (A') (A") (A') (A")
                 (A') (A') (A") (A')
 ExpMin= 1.22D-01 ExpMax= 1.04D+04 ExpMxC= 1.57D+03 IAcc=2 IRadAn=         4 AccDes= 0.00D+00
 Harris functional with IExCor=  402 and IRadAn=       4 diagonalized for initial guess.
 HarFok:  IExCor=  402 AccDes= 0.00D+00 IRadAn=         4 IDoV= 1 UseB2=F ITyADJ=14
 ICtDFT=  3500011 ScaDFX=  1.000000  1.000000  1.000000  1.000000
 FoFCou: FMM=F IPFlag=           0 FMFlag=      100000 FMFlg1=           0
         NFxFlg=           0 DoJE=T BraDBF=F KetDBF=T FulRan=T
         wScrn=  0.000000 ICntrl=       500 IOpCl=  0 I1Cent=   200000004 NGrid=           0
         NMat0=    1 NMatS0=      1 NMatT0=    0 NMatD0=    1 NMtDS0=    0 NMtDT0=    0
 Petite list used in FoFCou.
 Keep R1 ints in memory in symmetry-blocked form, NReq=7153137.
 Requested convergence on RMS density matrix=1.00D-08 within 128 cycles.
 Requested convergence on MAX density matrix=1.00D-06.
 Requested convergence on             energy=1.00D-06.
 No special actions if energy rises.
 Integral accuracy reduced to 1.0D-05 until final iterations.
 Rare condition: small coef for last iteration:  0.000D+00
 Problem detected with inexpensive integrals.
 Switching to full accuracy and repeating last cycle.
 Rare condition: small coef for last iteration:  0.000D+00
 Rare condition: small coef for last iteration:  0.000D+00
 EnCoef did   100 forward-backward iterations
 EnCoef did   100 forward-backward iterations
 EnCoef did   100 forward-backward iterations
 Rare condition: small coef for last iteration: -0.549D-15
 Rare condition: small coef for last iteration:  0.000D+00
 EnCoef did   100 forward-backward iterations
 EnCoef did   100 forward-backward iterations
 Rare condition: small coef for last iteration: -0.604D-15
 EnCoef did   100 forward-backward iterations
 Rare condition: small coef for last iteration:  0.000D+00
 Rare condition: small coef for last iteration:  0.000D+00
 EnCoef did   100 forward-backward iterations
 EnCoef did   100 forward-backward iterations
 EnCoef did   100 forward-backward iterations
 EnCoef did   100 forward-backward iterations
 Rare condition: small coef for last iteration: -0.256D-15
 Rare condition: small coef for last iteration:  0.000D+00
 Rare condition: small coef for last iteration:  0.000D+00
 Rare condition: small coef for last iteration:  0.000D+00
 SCF Done:  E(RB3LYP) =  -535.586187690     A.U. after   47 cycles
            NFock= 47  Conv=0.39D-08     -V/T= 2.0026
 Calling FoFJK, ICntrl=      2127 FMM=F ISym2X=1 I1Cent= 0 IOpClX= 0 NMat=1 NMatS=1 NMatT=0.
 ***** Axes restored to original set *****
 -------------------------------------------------------------------
 Center     Atomic                   Forces (Hartrees/Bohr)
 Number     Number              X              Y              Z
 -------------------------------------------------------------------
      1        8           0.000195319   -0.001251572   -0.005779165
      2       17          -0.000219567    0.001287044    0.005889767
      3        1           0.000024248   -0.000035472   -0.000110601
 -------------------------------------------------------------------
 Cartesian Forces:  Max     0.005889767 RMS     0.002816843

 GradGradGradGradGradGradGradGradGradGradGradGradGradGradGradGradGradGrad
 Berny optimization.
 FormGI is forming the generalized inverse of G from B-inverse, IUseBI=4.
 Internal  Forces:  Max     0.006031999 RMS     0.003484855
 Search for a saddle point.
 Step number  13 out of a maximum of  100
 All quantities printed in internal units (Hartrees-Bohrs-Radians)
 Swapping is turned off.
 Update second derivatives using D2CorX and points   11   12   13
 The second derivative matrix:
                          R1        R2        A1
           R1          -0.00550
           R2           0.00010   0.60310
           A1           0.00600   0.00024   0.07005
 ITU=  0  0  0  0
     Eigenvalues ---   -0.00597   0.07052   0.60310
 Eigenvectors required to have negative eigenvalues:
                          R1        A1        R2
   1                    0.99690  -0.07863  -0.00013
 RFO step:  Lambda0=3.712655835D-03 Lambda=-6.78511065D-06.
 Linear search not attempted -- option 19 set.
 Maximum step size (   0.300) exceeded in Quadratic search.
    -- Step size scaled by   0.484
 Iteration  1 RMS(Cart)=  0.08454473 RMS(Int)=  0.05696779
 Iteration  2 RMS(Cart)=  0.04626595 RMS(Int)=  0.00000918
 Iteration  3 RMS(Cart)=  0.00001370 RMS(Int)=  0.00000000
 Iteration  4 RMS(Cart)=  0.00000000 RMS(Int)=  0.00000000
 ClnCor:  largest displacement from symmetrization is 2.60D-15 for atom     3.
 Variable       Old X    -DE/DX   Delta X   Delta X   Delta X     New X
                                 (Linear)    (Quad)   (Total)
    R1        8.21435  -0.00603   0.00000   0.29866   0.29866   8.51301
    R2        1.85479  -0.00001   0.00000  -0.00005  -0.00005   1.85475
    A1        1.41711  -0.00022   0.00000  -0.02832  -0.02832   1.38878
         Item               Value     Threshold  Converged?
 Maximum Force            0.006032     0.000450     NO 
 RMS     Force            0.003485     0.000300     NO 
 Maximum Displacement     0.174023     0.001800     NO 
 RMS     Displacement     0.129831     0.001200     NO 
 Predicted change in Energy= 1.527483D-03
 GradGradGradGradGradGradGradGradGradGradGradGradGradGradGradGradGradGrad

                          Input orientation:                          
 ---------------------------------------------------------------------
 Center     Atomic      Atomic             Coordinates (Angstroms)
 Number     Number       Type             X           Y           Z
 ---------------------------------------------------------------------
      1          8           0        0.008083    4.812733    4.626808
      2         17           0        0.170592    3.852416    0.228462
      3          1           0       -0.830224    5.223765    4.324129
 ---------------------------------------------------------------------
                    Distance matrix (angstroms):
                    1          2          3
     1  O    0.000000
     2  Cl   4.504893   0.000000
     3  H    0.981489   4.433590   0.000000
 Stoichiometry    ClHO
 Framework group  CS[SG(ClHO)]
 Deg. of freedom     3
 Full point group                 CS      NOp   2
 Largest Abelian subgroup         CS      NOp   2
 Largest concise Abelian subgroup C1      NOp   1
                         Standard orientation:                         
 ---------------------------------------------------------------------
 Center     Atomic      Atomic             Coordinates (Angstroms)
 Number     Number       Type             X           Y           Z
 ---------------------------------------------------------------------
      1          8           0        0.037126    2.952340    0.000000
      2         17           0        0.037126   -1.552553   -0.000000
      3          1           0       -0.928150    2.774682    0.000000
 ---------------------------------------------------------------------
 Rotational constants (GHZ):         569.5765196           2.1863894           2.1780288
 Standard basis: SVP (5D, 7F)
 There are    29 symmetry adapted cartesian basis functions of A'  symmetry.
 There are    10 symmetry adapted cartesian basis functions of A"  symmetry.
 There are    27 symmetry adapted basis functions of A'  symmetry.
 There are    10 symmetry adapted basis functions of A"  symmetry.
    37 basis functions,    69 primitive gaussians,    39 cartesian basis functions
    13 alpha electrons       13 beta electrons
       nuclear repulsion energy        22.3178592796 Hartrees.
 NAtoms=    3 NActive=    3 NUniq=    3 SFac= 1.00D+00 NAtFMM=   60 NAOKFM=F Big=F
 Integral buffers will be    131072 words long.
 Raffenetti 2 integral format.
 Two-electron integral symmetry is turned on.
 Nuclear repulsion after empirical dispersion term =       22.3174080966 Hartrees.
 One-electron integrals computed using PRISM.
 NBasis=    37 RedAO= T EigKep=  5.59D-02  NBF=    27    10
 NBsUse=    37 1.00D-06 EigRej= -1.00D+00 NBFU=    27    10
 Initial guess from the checkpoint file:  "/tmp/Gau-12489.chk"
 B after Tr=     0.000000   -0.000000    0.000000
         Rot=    1.000000   -0.000000    0.000000    0.000379 Ang=   0.04 deg.
 Initial guess orbital symmetries:
       Occupied  (A') (A') (A') (A') (A') (A") (A') (A') (A') (A")
                 (A') (A") (A')
       Virtual   (A') (A') (A') (A') (A') (A') (A") (A') (A") (A')
                 (A') (A") (A') (A') (A") (A') (A') (A") (A') (A")
                 (A') (A') (A") (A')
 ExpMin= 1.22D-01 ExpMax= 1.04D+04 ExpMxC= 1.57D+03 IAcc=2 IRadAn=         4 AccDes= 0.00D+00
 Harris functional with IExCor=  402 and IRadAn=       4 diagonalized for initial guess.
 HarFok:  IExCor=  402 AccDes= 0.00D+00 IRadAn=         4 IDoV= 1 UseB2=F ITyADJ=14
 ICtDFT=  3500011 ScaDFX=  1.000000  1.000000  1.000000  1.000000
 FoFCou: FMM=F IPFlag=           0 FMFlag=      100000 FMFlg1=           0
         NFxFlg=           0 DoJE=T BraDBF=F KetDBF=T FulRan=T
         wScrn=  0.000000 ICntrl=       500 IOpCl=  0 I1Cent=   200000004 NGrid=           0
         NMat0=    1 NMatS0=      1 NMatT0=    0 NMatD0=    1 NMtDS0=    0 NMtDT0=    0
 Petite list used in FoFCou.
 Keep R1 ints in memory in symmetry-blocked form, NReq=7153137.
 Requested convergence on RMS density matrix=1.00D-08 within 128 cycles.
 Requested convergence on MAX density matrix=1.00D-06.
 Requested convergence on             energy=1.00D-06.
 No special actions if energy rises.
 Integral accuracy reduced to 1.0D-05 until final iterations.
 Rare condition: small coef for last iteration:  0.000D+00
 Problem detected with inexpensive integrals.
 Switching to full accuracy and repeating last cycle.
 Rare condition: small coef for last iteration:  0.000D+00
 EnCoef did   100 forward-backward iterations
 EnCoef did   100 forward-backward iterations
 Rare condition: small coef for last iteration:  0.000D+00
 Rare condition: small coef for last iteration:  0.000D+00
 Rare condition: small coef for last iteration:  0.000D+00
 Rare condition: small coef for last iteration:  0.000D+00
 Rare condition: small coef for last iteration:  0.000D+00
 Rare condition: small coef for last iteration:  0.000D+00
 EnCoef did   100 forward-backward iterations
 Rare condition: small coef for last iteration:  0.000D+00
 EnCoef did   100 forward-backward iterations
 Rare condition: small coef for last iteration:  0.000D+00
 EnCoef did    24 forward-backward iterations
 Rare condition: small coef for last iteration:  0.000D+00
 EnCoef did   100 forward-backward iterations
 Rare condition: small coef for last iteration:  0.000D+00
 EnCoef did   100 forward-backward iterations
 Rare condition: small coef for last iteration:  0.000D+00
 EnCoef did   100 forward-backward iterations
 Rare condition: small coef for last iteration:  0.000D+00
 EnCoef did   100 forward-backward iterations
 Rare condition: small coef for last iteration:  0.000D+00
 EnCoef did   100 forward-backward iterations
 Rare condition: small coef for last iteration:  0.000D+00
 EnCoef did   100 forward-backward iterations
 Rare condition: small coef for last iteration:  0.000D+00
 EnCoef did   100 forward-backward iterations
 Rare condition: small coef for last iteration:  0.000D+00
 EnCoef did   100 forward-backward iterations
 Rare condition: small coef for last iteration:  0.000D+00
 EnCoef did   100 forward-backward iterations
 Rare condition: small coef for last iteration:  0.000D+00
 EnCoef did   100 forward-backward iterations
 Rare condition: small coef for last iteration:  0.000D+00
 EnCoef did   100 forward-backward iterations
 Rare condition: small coef for last iteration:  0.000D+00
 EnCoef did   100 forward-backward iterations
 Rare condition: small coef for last iteration:  0.000D+00
 EnCoef did   100 forward-backward iterations
 Rare condition: small coef for last iteration:  0.000D+00
 EnCoef did   100 forward-backward iterations
 Rare condition: small coef for last iteration:  0.000D+00
 EnCoef did   100 forward-backward iterations
 Rare condition: small coef for last iteration:  0.000D+00
 EnCoef did   100 forward-backward iterations
 Rare condition: small coef for last iteration:  0.000D+00
 EnCoef did   100 forward-backward iterations
 Rare condition: small coef for last iteration:  0.000D+00
 EnCoef did   100 forward-backward iterations
 Rare condition: small coef for last iteration:  0.000D+00
 EnCoef did   100 forward-backward iterations
 Rare condition: small coef for last iteration:  0.000D+00
 EnCoef did   100 forward-backward iterations
 Rare condition: small coef for last iteration:  0.000D+00
 EnCoef did   100 forward-backward iterations
 Rare condition: small coef for last iteration:  0.000D+00
 EnCoef did   100 forward-backward iterations
 Rare condition: small coef for last iteration:  0.000D+00
 EnCoef did   100 forward-backward iterations
 Rare condition: small coef for last iteration:  0.000D+00
 EnCoef did   100 forward-backward iterations
 Rare condition: small coef for last iteration:  0.000D+00
 EnCoef did   100 forward-backward iterations
 Rare condition: small coef for last iteration:  0.000D+00
 EnCoef did   100 forward-backward iterations
 Rare condition: small coef for last iteration:  0.000D+00
 EnCoef did   100 forward-backward iterations
 Rare condition: small coef for last iteration:  0.000D+00
 EnCoef did   100 forward-backward iterations
 Rare condition: small coef for last iteration:  0.000D+00
 EnCoef did   100 forward-backward iterations
 >>>>>>>>>> Convergence criterion not met.
 SCF Done:  E(RB3LYP) =  -535.566596840     A.U. after  129 cycles
            NFock=128  Conv=0.20D-02     -V/T= 2.0025
 Convergence failure -- run terminated.
 Error termination via Lnk1e in /share/apps/g16.a03/g16/l502.exe at Thu Mar  6 16:37:14 2025.
 Job cpu time:       0 days  0 hours  3 minutes  8.2 seconds.
 Elapsed time:       0 days  0 hours  0 minutes 24.1 seconds.
 File lengths (MBytes):  RWF=      6 Int=      0 D2E=      0 Chk=      1 Scr=      1
