70
 energy: -143.140273326099 gnorm: 0.111755992805 xtb: 6.6.1 (8d0f1dd)
O     1.27912355    -3.89204870     0.60663471
H     0.61674244    -3.34002055     1.02598446
H     1.87213130    -3.31723031     0.11953688
O    -1.67289363     0.63454468    -1.68710433
H    -1.20452752     1.38028874    -2.06636386
H    -1.24188335    -0.17782301    -1.95844718
O    -0.99313373     0.71623065     3.35180506
H    -1.86539377     0.32207323     3.40784949
H    -0.34467633     0.03079646     3.52216156
O    -2.93824246    -0.69395408     1.96223551
H    -3.24890356    -1.58954865     2.10624604
H    -3.71114340    -0.29789767     1.55590816
O     2.53249372    -2.50284767    -1.56692539
H     2.42449671    -1.74467945    -2.14386281
H     3.42970494    -2.54969287    -1.23202891
O    -0.48544551    -2.18010927    -2.86422832
H     0.21167357    -2.81934079    -2.70691959
H    -0.01752542    -1.39378586    -3.15073442
O    -0.64292695    -1.52640435     0.74506064
H    -1.31448157    -0.87987511     0.52066864
H    -0.94685950    -2.34173597     0.34232258
O    -2.58978688    -1.93010467    -0.96303701
H    -1.67880116    -1.97928280    -1.25803650
H    -3.20246163    -1.97831402    -1.69900034
O     1.05168245     0.25841726    -3.42590293
H     1.10023450     1.00772858    -2.82965310
H     1.64789123     0.48226153    -4.14267809
O    -5.11516895     0.35656080     0.28106278
H    -5.82425164     0.91715645    -0.03873807
H    -4.75792030    -0.02923539    -0.52073083
O    -4.01293824    -0.02968522    -2.66308888
Cl    -4.39096739     1.32584338    -3.62267129
H    -3.22892862     0.31940034    -2.22257259
O     2.17326844     2.00246989     3.06779320
Cl     2.35336489     1.12936097     4.51914110
H     1.40559106     2.56553807     3.22339772
O     0.64583293    -1.39412273     2.93871320
Cl     1.44140754    -2.73902916     3.61654177
H     0.27757652    -1.61208975     2.07415337
O    -0.10360207     3.16948941     4.39337608
Cl    -1.19995940     3.63621863     5.61047315
H    -0.38050917     2.29123046     4.10602308
C     5.11526766    -0.60576502    -0.87480319
C     4.76901328    -0.95901649     0.42367436
C     3.58550497    -0.46065662     0.93419816
C     2.90459689     0.55960386     0.26164797
C     3.43365101     1.02937985    -0.94014565
C     4.55132646     0.47230854    -1.55078041
H     5.37071089    -1.66496346     0.98084024
H     3.28228514    -0.85596765     1.89741282
C    -1.37068676     3.07168477     0.49929107
C    -1.35319985     3.95843711    -0.58017274
C    -2.51027181     3.09172986     1.30848906
C    -2.47986798     4.72209781    -0.85786118
H    -0.52820590     3.99599855    -1.27323853
C    -3.62639213     3.87444313     1.06211990
C    -3.65215380     4.57922456    -0.13232645
H    -2.55666339     5.30427628    -1.76698491
H    -4.44125001     3.72598571     1.75836564
Cl     6.43374851    -1.45851223    -1.60940450
Cl    -5.09929230     5.45388928    -0.56054579
N     1.67957179     1.03719596     0.75231533
H     1.64837846     0.84807987     1.74176815
C     0.79021223     1.89670895     0.12694235
O     0.94840377     2.13831625    -1.04601792
N    -0.27857736     2.28475870     0.91139108
H    -0.37688246     1.80053697     1.78986336
H    -2.51047796     2.33694547     2.08805599
H     2.92721505     1.78362254    -1.52032289
Cl     5.07572613     0.85750346    -3.15763425
