70
 energy: -143.117090541457 gnorm: 0.090636380090 xtb: 6.6.1 (8d0f1dd)
O    -0.87096363    -3.34995243    -0.43323753
H    -1.06609009    -2.79528605    -1.19060725
H    -1.66578992    -3.85145542    -0.24327802
O     0.04902950     1.91793337    -4.15006179
H     0.67398101     1.34287866    -4.59513089
H     0.45922834     2.22696041    -3.34038453
O    -2.01376002     2.44096922     3.84382053
H    -2.64230890     2.99987780     3.38350964
H    -2.48209194     2.11696489     4.61519902
O     0.70624731     1.58403544     3.11207215
H     1.00223777     1.31801362     2.23974136
H    -0.25207246     1.55396227     3.10450372
O    -0.85083570    -0.09567782    -2.22335573
H    -1.08160543     0.69155438    -2.71969230
H     0.10580292    -0.12352068    -2.16499973
O     2.36588739    -3.38718561    -2.29902968
H     1.81145027    -4.01585517    -2.76455309
H     2.00744250    -3.29059247    -1.41498981
O    -2.86598525    -2.42197328    -2.79970747
H    -3.28216739    -2.45495964    -3.66286549
H    -2.15951349    -1.77470237    -2.83543690
O    -4.77941665    -0.53698842    -1.81288430
H    -4.55963920     0.28868302    -1.37779498
H    -4.00775223    -1.09386213    -1.93019678
O     0.27306488     2.76806375    -1.65625626
H     0.44730242     3.65564800    -1.33817755
H    -0.04008056     2.32676277    -0.86471902
O     2.26324294    -0.58663389    -3.73426179
H     2.72228566    -1.37036489    -3.42704228
H     2.87478254     0.13757158    -3.87877492
O    -2.48195871     2.84490437    -3.85828862
Cl    -2.60336264     2.57086820    -2.18158725
H    -1.56439047     2.63973212    -4.07406460
O     2.07439044     4.40112325     0.22168767
Cl     3.65783770     3.77357274     0.22799524
H     1.74674129     4.37596103     1.12866065
O    -0.58784540    -1.08602157     4.04900198
Cl    -1.42296595    -1.42229547     5.49491255
H    -0.43026927    -0.13888611     3.95578019
O     1.29722285     3.98085228     4.58910648
Cl     2.49420831     3.99871563     3.37746811
H     0.98539956     3.07162698     4.50747519
C     4.98679068    -0.68734249    -0.37338934
C     4.46894947    -1.72335792     0.39422725
C     3.13158346    -1.72784514     0.74225177
C     2.24920681    -0.74297976     0.28580609
C     2.79852765     0.34786925    -0.38738834
C     4.11857220     0.30417380    -0.82094901
H     5.12349192    -2.55169838     0.63142177
H     2.80659964    -2.55824358     1.35935754
C    -2.61815611     0.14663578     1.04191875
C    -2.73668487     1.53000275     0.88659868
C    -3.64683768    -0.60228049     1.62053423
C    -3.87896542     2.14725296     1.38042752
H    -1.95260965     2.06296427     0.37323320
C    -4.83887367     0.04336324     1.90558989
C    -4.98561920     1.41741536     1.78505315
H    -3.84984852     3.21790873     1.22491656
H    -5.68368395    -0.51494301     2.28687826
Cl     6.65217954    -0.84729776    -0.82737500
Cl    -6.53987360     2.13133922     2.12743591
N     0.87363964    -0.89054852     0.52154662
H     0.49805708    -1.80948537     0.69546503
C    -0.13713143     0.05314563     0.61426965
O     0.09886192     1.23326992     0.51011496
N    -1.38906298    -0.49814704     0.80661655
H    -1.48488584    -1.49183917     0.66790092
H    -3.51014025    -1.65276425     1.85552734
H     2.26390418     1.23714154    -0.67951433
Cl     4.82742095     1.61382656    -1.70846947
