 Entering Gaussian System, Link 0=g16
 Input=ts.gjf
 Output=ts.log
 Initial command:
 /share/apps/g16.a03/g16/l1.exe "/tmp/Gau-32375.inp" -scrdir="/tmp/"
 Entering Link 1 = /share/apps/g16.a03/g16/l1.exe PID=     32377.
  
 Copyright (c) 1988,1990,1992,1993,1995,1998,2003,2009,2016,
            Gaussian, Inc.  All Rights Reserved.
  
 This is part of the Gaussian(R) 16 program.  It is based on
 the Gaussian(R) 09 system (copyright 2009, Gaussian, Inc.),
 the Gaussian(R) 03 system (copyright 2003, Gaussian, Inc.),
 the Gaussian(R) 98 system (copyright 1998, Gaussian, Inc.),
 the Gaussian(R) 94 system (copyright 1995, Gaussian, Inc.),
 the Gaussian 92(TM) system (copyright 1992, Gaussian, Inc.),
 the Gaussian 90(TM) system (copyright 1990, Gaussian, Inc.),
 the Gaussian 88(TM) system (copyright 1988, Gaussian, Inc.),
 the Gaussian 86(TM) system (copyright 1986, Carnegie Mellon
 University), and the Gaussian 82(TM) system (copyright 1983,
 Carnegie Mellon University). Gaussian is a federally registered
 trademark of Gaussian, Inc.
  
 This software contains proprietary and confidential information,
 including trade secrets, belonging to Gaussian, Inc.
  
 This software is provided under written license and may be
 used, copied, transmitted, or stored only in accord with that
 written license.
  
 The following legend is applicable only to US Government
 contracts under FAR:
  
                    RESTRICTED RIGHTS LEGEND
  
 Use, reproduction and disclosure by the US Government is
 subject to restrictions as set forth in subparagraphs (a)
 and (c) of the Commercial Computer Software - Restricted
 Rights clause in FAR 52.227-19.
  
 Gaussian, Inc.
 340 Quinnipiac St., Bldg. 40, Wallingford CT 06492
  
  
 ---------------------------------------------------------------
 Warning -- This program may not be used in any manner that
 competes with the business of Gaussian, Inc. or will provide
 assistance to any competitor of Gaussian, Inc.  The licensee
 of this program is prohibited from giving any competitor of
 Gaussian, Inc. access to this program.  By using this program,
 the user acknowledges that Gaussian, Inc. is engaged in the
 business of creating and licensing software in the field of
 computational chemistry and represents and warrants to the
 licensee that it is not a competitor of Gaussian, Inc. and that
 it will not use this program in any manner prohibited above.
 ---------------------------------------------------------------
  

 Cite this work as:
 Gaussian 16, Revision A.03,
 M. J. Frisch, G. W. Trucks, H. B. Schlegel, G. E. Scuseria, 
 M. A. Robb, J. R. Cheeseman, G. Scalmani, V. Barone, 
 G. A. Petersson, H. Nakatsuji, X. Li, M. Caricato, A. V. Marenich, 
 J. Bloino, B. G. Janesko, R. Gomperts, B. Mennucci, H. P. Hratchian, 
 J. V. Ortiz, A. F. Izmaylov, J. L. Sonnenberg, D. Williams-Young, 
 F. Ding, F. Lipparini, F. Egidi, J. Goings, B. Peng, A. Petrone, 
 T. Henderson, D. Ranasinghe, V. G. Zakrzewski, J. Gao, N. Rega, 
 G. Zheng, W. Liang, M. Hada, M. Ehara, K. Toyota, R. Fukuda, 
 J. Hasegawa, M. Ishida, T. Nakajima, Y. Honda, O. Kitao, H. Nakai, 
 T. Vreven, K. Throssell, J. A. Montgomery, Jr., J. E. Peralta, 
 F. Ogliaro, M. J. Bearpark, J. J. Heyd, E. N. Brothers, K. N. Kudin, 
 V. N. Staroverov, T. A. Keith, R. Kobayashi, J. Normand, 
 K. Raghavachari, A. P. Rendell, J. C. Burant, S. S. Iyengar, 
 J. Tomasi, M. Cossi, J. M. Millam, M. Klene, C. Adamo, R. Cammi, 
 J. W. Ochterski, R. L. Martin, K. Morokuma, O. Farkas, 
 J. B. Foresman, and D. J. Fox, Gaussian, Inc., Wallingford CT, 2016.
 
 ******************************************
 Gaussian 16:  EM64L-G16RevA.03 25-Dec-2016
                 6-Mar-2025 
 ******************************************
 %nproc=8
 Will use up to    8 processors via shared memory.
 %mem=4000MB
 --------------------------------------------------------------------
 #opt=(noeigen,calcfc,ts,recalc=5,maxcyc=200) freq B3LYP/SVP em=GD3BJ
 --------------------------------------------------------------------
 1/5=1,6=200,10=4,11=1,18=20,26=3,38=1,71=5/1,3;
 2/9=110,12=2,17=6,18=5,40=1/2;
 3/5=18,7=101,11=2,25=1,30=1,71=2,74=-5,124=41,140=1/1,2,3;
 4//1;
 5/5=2,38=5/2;
 8/6=4,10=90,11=11/1;
 11/6=1,8=1,9=11,15=111,16=1/1,2,10;
 10/6=1,13=1/2;
 6/7=2,8=2,9=2,10=2,28=1/1;
 7/10=1,18=20,25=1/1,2,3,16;
 1/5=1,6=200,10=4,11=1,18=20,26=3,71=5/3(2);
 2/9=110/2;
 99//99;
 2/9=110/2;
 3/5=18,7=101,11=2,25=1,30=1,71=1,74=-5,124=41/1,2,3;
 4/5=5,16=3,69=1/1;
 5/5=2,38=5/2;
 7//1,2,3,16;
 1/5=1,6=200,11=1,18=20,26=3,71=5/3(-5);
 2/9=110/2;
 6/7=2,8=2,9=2,10=2,19=2,28=1/1;
 99/9=1/99;
 ----------
 ts-480.gjf
 ----------
 Symbolic Z-matrix:
 Charge =  0 Multiplicity = 1
 O                    -2.05026   0.17156  -1.44911 
 Cl                   -2.40239   1.92516  -0.53589 
 H                    -1.11103   0.25345  -1.71264 
 
 Add virtual bond connecting atoms Cl2        and O1         Dist= 3.80D+00.

 GradGradGradGradGradGradGradGradGradGradGradGradGradGradGradGradGradGrad
 Berny optimization.
 Initialization pass.
                           ----------------------------
                           !    Initial Parameters    !
                           ! (Angstroms and Degrees)  !
 --------------------------                            --------------------------
 ! Name  Definition              Value          Derivative Info.                !
 --------------------------------------------------------------------------------
 ! R1    R(1,2)                  2.0083         calculate D2E/DX2 analytically  !
 ! R2    R(1,3)                  0.9789         calculate D2E/DX2 analytically  !
 ! A1    A(2,1,3)              102.5681         calculate D2E/DX2 analytically  !
 --------------------------------------------------------------------------------
 Trust Radius=3.00D-01 FncErr=1.00D-07 GrdErr=1.00D-06 EigMax=2.50D+02 EigMin=1.00D-04
 Number of steps in this run=    100 maximum allowed number of steps=    100.
 Search for a saddle point of order  1.
 GradGradGradGradGradGradGradGradGradGradGradGradGradGradGradGradGradGrad

                          Input orientation:                          
 ---------------------------------------------------------------------
 Center     Atomic      Atomic             Coordinates (Angstroms)
 Number     Number       Type             X           Y           Z
 ---------------------------------------------------------------------
      1          8           0       -2.050255    0.171558   -1.449105
      2         17           0       -2.402390    1.925164   -0.535894
      3          1           0       -1.111029    0.253452   -1.712639
 ---------------------------------------------------------------------
                    Distance matrix (angstroms):
                    1          2          3
     1  O    0.000000
     2  Cl   2.008255   0.000000
     3  H    0.978929   2.418049   0.000000
 Stoichiometry    ClHO
 Framework group  CS[SG(ClHO)]
 Deg. of freedom     3
 Full point group                 CS      NOp   2
 Largest Abelian subgroup         CS      NOp   2
 Largest concise Abelian subgroup C1      NOp   1
                         Standard orientation:                         
 ---------------------------------------------------------------------
 Center     Atomic      Atomic             Coordinates (Angstroms)
 Number     Number       Type             X           Y           Z
 ---------------------------------------------------------------------
      1          8           0        0.036749    1.304897   -0.000000
      2         17           0        0.036749   -0.703358    0.000000
      3          1           0       -0.918723    1.517911   -0.000000
 ---------------------------------------------------------------------
 Rotational constants (GHZ):         592.4247024          10.7955681          10.6023646
 Standard basis: SVP (5D, 7F)
 There are    29 symmetry adapted cartesian basis functions of A'  symmetry.
 There are    10 symmetry adapted cartesian basis functions of A"  symmetry.
 There are    27 symmetry adapted basis functions of A'  symmetry.
 There are    10 symmetry adapted basis functions of A"  symmetry.
    37 basis functions,    69 primitive gaussians,    39 cartesian basis functions
    13 alpha electrons       13 beta electrons
       nuclear repulsion energy        43.8810442329 Hartrees.
 NAtoms=    3 NActive=    3 NUniq=    3 SFac= 1.00D+00 NAtFMM=   60 NAOKFM=F Big=F
 Integral buffers will be    131072 words long.
 Raffenetti 2 integral format.
 Two-electron integral symmetry is turned on.
 Nuclear repulsion after empirical dispersion term =       43.8794558313 Hartrees.
 One-electron integrals computed using PRISM.
 NBasis=    37 RedAO= T EigKep=  4.87D-02  NBF=    27    10
 NBsUse=    37 1.00D-06 EigRej= -1.00D+00 NBFU=    27    10
 ExpMin= 1.22D-01 ExpMax= 1.04D+04 ExpMxC= 1.57D+03 IAcc=3 IRadAn=         5 AccDes= 0.00D+00
 Harris functional with IExCor=  402 and IRadAn=       5 diagonalized for initial guess.
 HarFok:  IExCor=  402 AccDes= 0.00D+00 IRadAn=         5 IDoV= 1 UseB2=F ITyADJ=14
 ICtDFT=  3500011 ScaDFX=  1.000000  1.000000  1.000000  1.000000
 FoFCou: FMM=F IPFlag=           0 FMFlag=      100000 FMFlg1=           0
         NFxFlg=           0 DoJE=T BraDBF=F KetDBF=T FulRan=T
         wScrn=  0.000000 ICntrl=       500 IOpCl=  0 I1Cent=   200000004 NGrid=           0
         NMat0=    1 NMatS0=      1 NMatT0=    0 NMatD0=    1 NMtDS0=    0 NMtDT0=    0
 Petite list used in FoFCou.
 Initial guess orbital symmetries:
       Occupied  (A') (A') (A') (A') (A') (A") (A') (A') (A') (A')
                 (A") (A') (A")
       Virtual   (A') (A') (A') (A') (A') (A") (A') (A') (A") (A')
                 (A") (A') (A") (A') (A') (A') (A") (A') (A') (A")
                 (A') (A") (A') (A')
 The electronic state of the initial guess is 1-A'.
 Keep R1 ints in memory in symmetry-blocked form, NReq=7153137.
 Requested convergence on RMS density matrix=1.00D-08 within 128 cycles.
 Requested convergence on MAX density matrix=1.00D-06.
 Requested convergence on             energy=1.00D-06.
 No special actions if energy rises.
 Integral accuracy reduced to 1.0D-05 until final iterations.
 Initial convergence to 1.0D-05 achieved.  Increase integral accuracy.
 SCF Done:  E(RB3LYP) =  -535.738536247     A.U. after   13 cycles
            NFock= 13  Conv=0.26D-08     -V/T= 2.0031
 DoSCS=F DFT=T ScalE2(SS,OS)=  1.000000  1.000000
 Range of M.O.s used for correlation:     1    37
 NBasis=    37 NAE=    13 NBE=    13 NFC=     0 NFV=     0
 NROrb=     37 NOA=    13 NOB=    13 NVA=    24 NVB=    24
 Symmetrizing basis deriv contribution to polar:
 IMax=3 JMax=2 DiffMx= 0.00D+00
 G2DrvN: will do     4 centers at a time, making    1 passes.
 Calling FoFCou, ICntrl=  3107 FMM=F I1Cent=   0 AccDes= 0.00D+00.
 End of G2Drv F.D. properties file   721 does not exist.
 End of G2Drv F.D. properties file   722 does not exist.
 End of G2Drv F.D. properties file   788 does not exist.
          IDoAtm=111
          Differentiating once with respect to nuclear coordinates.
 Keep R1 ints in memory in symmetry-blocked form, NReq=7127942.
          There are    12 degrees of freedom in the 1st order CPHF.  IDoFFX=6 NUNeed=     0.
      6 vectors produced by pass  0 Test12= 2.60D-15 8.33D-09 XBig12= 7.28D-02 1.79D-01.
 AX will form     6 AO Fock derivatives at one time.
      6 vectors produced by pass  1 Test12= 2.60D-15 8.33D-09 XBig12= 5.71D-02 1.14D-01.
      6 vectors produced by pass  2 Test12= 2.60D-15 8.33D-09 XBig12= 9.86D-04 1.23D-02.
      6 vectors produced by pass  3 Test12= 2.60D-15 8.33D-09 XBig12= 1.42D-05 1.35D-03.
      6 vectors produced by pass  4 Test12= 2.60D-15 8.33D-09 XBig12= 7.78D-08 9.96D-05.
      6 vectors produced by pass  5 Test12= 2.60D-15 8.33D-09 XBig12= 1.79D-10 4.29D-06.
      4 vectors produced by pass  6 Test12= 2.60D-15 8.33D-09 XBig12= 1.71D-13 1.25D-07.
 InvSVY:  IOpt=1 It=  1 EMax= 2.22D-16
 Solved reduced A of dimension    40 with     6 vectors.
 End of Minotr F.D. properties file   721 does not exist.
 End of Minotr F.D. properties file   722 does not exist.
 End of Minotr F.D. properties file   788 does not exist.

 **********************************************************************

            Population analysis using the SCF density.

 **********************************************************************

 Orbital symmetries:
       Occupied  (A') (A') (A') (A') (A') (A") (A') (A') (A') (A')
                 (A") (A') (A")
       Virtual   (A') (A') (A') (A') (A') (A") (A') (A') (A") (A')
                 (A") (A') (A") (A') (A') (A') (A") (A') (A') (A")
                 (A') (A') (A") (A')
 The electronic state is 1-A'.
 Alpha  occ. eigenvalues -- -101.54717 -19.21302  -9.49589  -7.26943  -7.25331
 Alpha  occ. eigenvalues --   -7.25309  -0.99640  -0.80259  -0.49121  -0.40767
 Alpha  occ. eigenvalues --   -0.36742  -0.32605  -0.30262
 Alpha virt. eigenvalues --   -0.15765   0.05377   0.46284   0.55420   0.67822
 Alpha virt. eigenvalues --    0.70308   0.70409   0.76455   0.76492   0.83323
 Alpha virt. eigenvalues --    0.83709   0.92967   0.98073   0.98201   1.05669
 Alpha virt. eigenvalues --    1.29572   1.40817   1.54722   2.14081   2.59172
 Alpha virt. eigenvalues --    2.70125   2.90161   2.92316   3.63508
          Condensed to atoms (all electrons):
               1          2          3
     1  O    7.814273   0.151576   0.286453
     2  Cl   0.151576  16.815590  -0.008261
     3  H    0.286453  -0.008261   0.510602
 Mulliken charges:
               1
     1  O   -0.252302
     2  Cl   0.041095
     3  H    0.211207
 Sum of Mulliken charges =   0.00000
 Mulliken charges with hydrogens summed into heavy atoms:
               1
     1  O   -0.041095
     2  Cl   0.041095
 APT charges:
               1
     1  O   -0.503620
     2  Cl   0.051589
     3  H    0.452032
 Sum of APT charges =   0.00000
 APT charges with hydrogens summed into heavy atoms:
               1
     1  O   -0.051589
     2  Cl   0.051589
 Electronic spatial extent (au):  <R**2>=            127.8886
 Charge=              0.0000 electrons
 Dipole moment (field-independent basis, Debye):
    X=             -1.6605    Y=              0.1474    Z=             -0.0000  Tot=              1.6671
 Quadrupole moment (field-independent basis, Debye-Ang):
   XX=            -16.7140   YY=            -15.4226   ZZ=            -18.7699
   XY=             -2.8318   XZ=              0.0000   YZ=              0.0000
 Traceless Quadrupole moment (field-independent basis, Debye-Ang):
   XX=              0.2549   YY=              1.5462   ZZ=             -1.8011
   XY=             -2.8318   XZ=              0.0000   YZ=              0.0000
 Octapole moment (field-independent basis, Debye-Ang**2):
  XXX=             -2.1190  YYY=              2.3534  ZZZ=             -0.0000  XYY=             -4.3472
  XXY=              3.5559  XXZ=             -0.0000  XZZ=             -0.2357  YZZ=              0.5393
  YYZ=             -0.0000  XYZ=              0.0000
 Hexadecapole moment (field-independent basis, Debye-Ang**3):
 XXXX=            -17.1193 YYYY=            -96.9439 ZZZZ=            -16.8143 XXXY=             -0.3908
 XXXZ=             -0.0000 YYYX=             -4.8554 YYYZ=              0.0000 ZZZX=             -0.0000
 ZZZY=              0.0000 XXYY=            -18.0819 XXZZ=             -5.9451 YYZZ=            -22.2643
 XXYZ=              0.0000 YYXZ=              0.0000 ZZXY=              0.6192
 N-N= 4.387945583130D+01 E-N=-1.360548599938D+03  KE= 5.340688542781D+02
 Symmetry A'   KE= 4.833253160113D+02
 Symmetry A"   KE= 5.074353826674D+01
  Exact polarizability:   0.000   0.000   0.000   0.000   0.000   0.000
 Approx polarizability:  14.459  -1.446  65.095   0.000  -0.000   9.780
 Calling FoFJK, ICntrl=    100147 FMM=F ISym2X=1 I1Cent= 0 IOpClX= 0 NMat=1 NMatS=1 NMatT=0.
 ***** Axes restored to original set *****
 -------------------------------------------------------------------
 Center     Atomic                   Forces (Hartrees/Bohr)
 Number     Number              X              Y              Z
 -------------------------------------------------------------------
      1        8          -0.014284935    0.044124395    0.024716237
      2       17           0.015395658   -0.052927141   -0.029089910
      3        1          -0.001110724    0.008802745    0.004373672
 -------------------------------------------------------------------
 Cartesian Forces:  Max     0.052927141 RMS     0.027374555
 FormGI is forming the generalized inverse of G from B-inverse, IUseBI=4.

 GradGradGradGradGradGradGradGradGradGradGradGradGradGradGradGradGradGrad
 Berny optimization.
 Internal  Forces:  Max     0.062143644 RMS     0.037377460
 Search for a saddle point.
 Step number   1 out of a maximum of  100
 All quantities printed in internal units (Hartrees-Bohrs-Radians)
 Swapping is turned off.
 Second derivative matrix not updated -- analytic derivatives used.
 The second derivative matrix:
                          R1        R2        A1
           R1           0.03843
           R2          -0.00691   0.49172
           A1           0.01477  -0.00331   0.13413
 ITU=  0
     Eigenvalues ---    0.03612   0.13630   0.49186
 Eigenvectors required to have negative eigenvalues:
                          R1        A1        R2
   1                   -0.98881   0.14850  -0.01392
 RFO step:  Lambda0=7.955503099D-02 Lambda=-5.19860829D-03.
 Linear search not attempted -- option 19 set.
 Iteration  1 RMS(Cart)=  0.13247340 RMS(Int)=  0.01905959
 Iteration  2 RMS(Cart)=  0.02268459 RMS(Int)=  0.00027613
 Iteration  3 RMS(Cart)=  0.00023535 RMS(Int)=  0.00000003
 Iteration  4 RMS(Cart)=  0.00000004 RMS(Int)=  0.00000000
 ClnCor:  largest displacement from symmetrization is 1.46D-15 for atom     1.
 Variable       Old X    -DE/DX   Delta X   Delta X   Delta X     New X
                                 (Linear)    (Quad)   (Total)
    R1        3.79505  -0.06214   0.00000   0.16110   0.16110   3.95616
    R2        1.84991  -0.00151   0.00000  -0.00037  -0.00037   1.84953
    A1        1.79015  -0.01809   0.00000  -0.21799  -0.21799   1.57216
         Item               Value     Threshold  Converged?
 Maximum Force            0.062144     0.000450     NO 
 RMS     Force            0.037377     0.000300     NO 
 Maximum Displacement     0.160580     0.001800     NO 
 RMS     Displacement     0.148677     0.001200     NO 
 Predicted change in Energy= 9.235668D-03
 GradGradGradGradGradGradGradGradGradGradGradGradGradGradGradGradGradGrad

                          Input orientation:                          
 ---------------------------------------------------------------------
 Center     Atomic      Atomic             Coordinates (Angstroms)
 Number     Number       Type             X           Y           Z
 ---------------------------------------------------------------------
      1          8           0       -2.065576    0.086583   -1.482982
      2         17           0       -2.362065    1.934373   -0.544610
      3          1           0       -1.136033    0.329218   -1.670046
 ---------------------------------------------------------------------
                    Distance matrix (angstroms):
                    1          2          3
     1  O    0.000000
     2  Cl   2.093507   0.000000
     3  H    0.978731   2.312203   0.000000
 Stoichiometry    ClHO
 Framework group  CS[SG(ClHO)]
 Deg. of freedom     3
 Full point group                 CS      NOp   2
 Largest Abelian subgroup         CS      NOp   2
 Largest concise Abelian subgroup C1      NOp   1
                         Standard orientation:                         
 ---------------------------------------------------------------------
 Center     Atomic      Atomic             Coordinates (Angstroms)
 Number     Number       Type             X           Y           Z
 ---------------------------------------------------------------------
      1          8           0        0.037643    1.368780    0.000000
      2         17           0        0.037643   -0.724727   -0.000000
      3          1           0       -0.941087    1.370116    0.000000
 ---------------------------------------------------------------------
 Rotational constants (GHZ):         556.9499012          10.0707300           9.8918660
 Standard basis: SVP (5D, 7F)
 There are    29 symmetry adapted cartesian basis functions of A'  symmetry.
 There are    10 symmetry adapted cartesian basis functions of A"  symmetry.
 There are    27 symmetry adapted basis functions of A'  symmetry.
 There are    10 symmetry adapted basis functions of A"  symmetry.
    37 basis functions,    69 primitive gaussians,    39 cartesian basis functions
    13 alpha electrons       13 beta electrons
       nuclear repulsion energy        42.5928894491 Hartrees.
 NAtoms=    3 NActive=    3 NUniq=    3 SFac= 1.00D+00 NAtFMM=   60 NAOKFM=F Big=F
 Integral buffers will be    131072 words long.
 Raffenetti 2 integral format.
 Two-electron integral symmetry is turned on.
 Nuclear repulsion after empirical dispersion term =       42.5912702081 Hartrees.
 One-electron integrals computed using PRISM.
 NBasis=    37 RedAO= T EigKep=  4.97D-02  NBF=    27    10
 NBsUse=    37 1.00D-06 EigRej= -1.00D+00 NBFU=    27    10
 Initial guess from the checkpoint file:  "/tmp/Gau-32377.chk"
 B after Tr=    -0.000000   -0.000000   -0.000000
         Rot=    0.999994   -0.000000   -0.000000   -0.003403 Ang=  -0.39 deg.
 Initial guess orbital symmetries:
       Occupied  (A') (A') (A') (A') (A') (A") (A') (A') (A') (A')
                 (A") (A') (A")
       Virtual   (A') (A') (A') (A') (A') (A") (A') (A') (A") (A')
                 (A") (A') (A") (A') (A') (A') (A") (A') (A') (A")
                 (A') (A') (A") (A')
 ExpMin= 1.22D-01 ExpMax= 1.04D+04 ExpMxC= 1.57D+03 IAcc=2 IRadAn=         4 AccDes= 0.00D+00
 Harris functional with IExCor=  402 and IRadAn=       4 diagonalized for initial guess.
 HarFok:  IExCor=  402 AccDes= 0.00D+00 IRadAn=         4 IDoV= 1 UseB2=F ITyADJ=14
 ICtDFT=  3500011 ScaDFX=  1.000000  1.000000  1.000000  1.000000
 FoFCou: FMM=F IPFlag=           0 FMFlag=      100000 FMFlg1=           0
         NFxFlg=           0 DoJE=T BraDBF=F KetDBF=T FulRan=T
         wScrn=  0.000000 ICntrl=       500 IOpCl=  0 I1Cent=   200000004 NGrid=           0
         NMat0=    1 NMatS0=      1 NMatT0=    0 NMatD0=    1 NMtDS0=    0 NMtDT0=    0
 Petite list used in FoFCou.
 Keep R1 ints in memory in symmetry-blocked form, NReq=7153137.
 Requested convergence on RMS density matrix=1.00D-08 within 128 cycles.
 Requested convergence on MAX density matrix=1.00D-06.
 Requested convergence on             energy=1.00D-06.
 No special actions if energy rises.
 Integral accuracy reduced to 1.0D-05 until final iterations.
 Initial convergence to 1.0D-05 achieved.  Increase integral accuracy.
 SCF Done:  E(RB3LYP) =  -535.729524614     A.U. after   13 cycles
            NFock= 13  Conv=0.93D-08     -V/T= 2.0032
 Calling FoFJK, ICntrl=      2127 FMM=F ISym2X=1 I1Cent= 0 IOpClX= 0 NMat=1 NMatS=1 NMatT=0.
 ***** Axes restored to original set *****
 -------------------------------------------------------------------
 Center     Atomic                   Forces (Hartrees/Bohr)
 Number     Number              X              Y              Z
 -------------------------------------------------------------------
      1        8          -0.006905679    0.059508701    0.029373871
      2       17           0.007076997   -0.055748793   -0.027712633
      3        1          -0.000171318   -0.003759907   -0.001661238
 -------------------------------------------------------------------
 Cartesian Forces:  Max     0.059508701 RMS     0.030540913

 GradGradGradGradGradGradGradGradGradGradGradGradGradGradGradGradGradGrad
 Berny optimization.
 FormGI is forming the generalized inverse of G from B-inverse, IUseBI=4.
 Internal  Forces:  Max     0.062629500 RMS     0.036418327
 Search for a saddle point.
 Step number   2 out of a maximum of  100
 All quantities printed in internal units (Hartrees-Bohrs-Radians)
 Swapping is turned off.
 Update second derivatives using D2CorX and points    1    2
 The second derivative matrix:
                          R1        R2        A1
           R1           0.02966
           R2          -0.00742   0.49169
           A1           0.01970  -0.00298   0.13181
 ITU=  0  0
     Eigenvalues ---    0.02589   0.13543   0.49184
 Eigenvectors required to have negative eigenvalues:
                          R1        A1        R2
   1                   -0.98311   0.18245  -0.01450
 RFO step:  Lambda0=7.720857099D-02 Lambda=-1.22868365D-04.
 Linear search not attempted -- option 19 set.
 Iteration  1 RMS(Cart)=  0.02456245 RMS(Int)=  0.00047891
 Iteration  2 RMS(Cart)=  0.00036425 RMS(Int)=  0.00000004
 Iteration  3 RMS(Cart)=  0.00000004 RMS(Int)=  0.00000000
 ClnCor:  largest displacement from symmetrization is 3.63D-15 for atom     1.
 Variable       Old X    -DE/DX   Delta X   Delta X   Delta X     New X
                                 (Linear)    (Quad)   (Total)
    R1        3.95616  -0.06263   0.00000   0.02410   0.02410   3.98026
    R2        1.84953  -0.00078   0.00000   0.00045   0.00045   1.84998
    A1        1.57216   0.00747   0.00000  -0.03509  -0.03509   1.53707
         Item               Value     Threshold  Converged?
 Maximum Force            0.062630     0.000450     NO 
 RMS     Force            0.036418     0.000300     NO 
 Maximum Displacement     0.025061     0.001800     NO 
 RMS     Displacement     0.024674     0.001200     NO 
 Predicted change in Energy= 1.844985D-03
 GradGradGradGradGradGradGradGradGradGradGradGradGradGradGradGradGradGrad

                          Input orientation:                          
 ---------------------------------------------------------------------
 Center     Atomic      Atomic             Coordinates (Angstroms)
 Number     Number       Type             X           Y           Z
 ---------------------------------------------------------------------
      1          8           0       -2.066917    0.073321   -1.488605
      2         17           0       -2.355067    1.935004   -0.546564
      3          1           0       -1.141690    0.341849   -1.662469
 ---------------------------------------------------------------------
                    Distance matrix (angstroms):
                    1          2          3
     1  O    0.000000
     2  Cl   2.106261   0.000000
     3  H    0.978969   2.292525   0.000000
 Stoichiometry    ClHO
 Framework group  CS[SG(ClHO)]
 Deg. of freedom     3
 Full point group                 CS      NOp   2
 Largest Abelian subgroup         CS      NOp   2
 Largest concise Abelian subgroup C1      NOp   1
                         Standard orientation:                         
 ---------------------------------------------------------------------
 Center     Atomic      Atomic             Coordinates (Angstroms)
 Number     Number       Type             X           Y           Z
 ---------------------------------------------------------------------
      1          8           0        0.037631    1.378440   -0.000000
      2         17           0        0.037631   -0.727821    0.000000
      3          1           0       -0.940781    1.345433   -0.000000
 ---------------------------------------------------------------------
 Rotational constants (GHZ):         556.2215585           9.9686395           9.7931265
 Standard basis: SVP (5D, 7F)
 There are    29 symmetry adapted cartesian basis functions of A'  symmetry.
 There are    10 symmetry adapted cartesian basis functions of A"  symmetry.
 There are    27 symmetry adapted basis functions of A'  symmetry.
 There are    10 symmetry adapted basis functions of A"  symmetry.
    37 basis functions,    69 primitive gaussians,    39 cartesian basis functions
    13 alpha electrons       13 beta electrons
       nuclear repulsion energy        42.4170855234 Hartrees.
 NAtoms=    3 NActive=    3 NUniq=    3 SFac= 1.00D+00 NAtFMM=   60 NAOKFM=F Big=F
 Integral buffers will be    131072 words long.
 Raffenetti 2 integral format.
 Two-electron integral symmetry is turned on.
 Nuclear repulsion after empirical dispersion term =       42.4154596404 Hartrees.
 One-electron integrals computed using PRISM.
 NBasis=    37 RedAO= T EigKep=  4.99D-02  NBF=    27    10
 NBsUse=    37 1.00D-06 EigRej= -1.00D+00 NBFU=    27    10
 Initial guess from the checkpoint file:  "/tmp/Gau-32377.chk"
 B after Tr=     0.000000   -0.000000   -0.000000
         Rot=    1.000000    0.000000    0.000000   -0.000442 Ang=  -0.05 deg.
 Initial guess orbital symmetries:
       Occupied  (A') (A') (A') (A') (A') (A") (A') (A') (A') (A')
                 (A") (A') (A")
       Virtual   (A') (A') (A') (A') (A') (A") (A') (A') (A") (A')
                 (A") (A') (A') (A") (A') (A') (A") (A') (A') (A")
                 (A') (A') (A") (A')
 ExpMin= 1.22D-01 ExpMax= 1.04D+04 ExpMxC= 1.57D+03 IAcc=2 IRadAn=         4 AccDes= 0.00D+00
 Harris functional with IExCor=  402 and IRadAn=       4 diagonalized for initial guess.
 HarFok:  IExCor=  402 AccDes= 0.00D+00 IRadAn=         4 IDoV= 1 UseB2=F ITyADJ=14
 ICtDFT=  3500011 ScaDFX=  1.000000  1.000000  1.000000  1.000000
 FoFCou: FMM=F IPFlag=           0 FMFlag=      100000 FMFlg1=           0
         NFxFlg=           0 DoJE=T BraDBF=F KetDBF=T FulRan=T
         wScrn=  0.000000 ICntrl=       500 IOpCl=  0 I1Cent=   200000004 NGrid=           0
         NMat0=    1 NMatS0=      1 NMatT0=    0 NMatD0=    1 NMtDS0=    0 NMtDT0=    0
 Petite list used in FoFCou.
 Keep R1 ints in memory in symmetry-blocked form, NReq=7153137.
 Requested convergence on RMS density matrix=1.00D-08 within 128 cycles.
 Requested convergence on MAX density matrix=1.00D-06.
 Requested convergence on             energy=1.00D-06.
 No special actions if energy rises.
 Integral accuracy reduced to 1.0D-05 until final iterations.
 Initial convergence to 1.0D-05 achieved.  Increase integral accuracy.
 SCF Done:  E(RB3LYP) =  -535.727689346     A.U. after   12 cycles
            NFock= 12  Conv=0.39D-08     -V/T= 2.0032
 Calling FoFJK, ICntrl=      2127 FMM=F ISym2X=1 I1Cent= 0 IOpClX= 0 NMat=1 NMatS=1 NMatT=0.
 ***** Axes restored to original set *****
 -------------------------------------------------------------------
 Center     Atomic                   Forces (Hartrees/Bohr)
 Number     Number              X              Y              Z
 -------------------------------------------------------------------
      1        8          -0.006015351    0.061295121    0.029903997
      2       17           0.005806229   -0.055693333   -0.027280188
      3        1           0.000209122   -0.005601788   -0.002623810
 -------------------------------------------------------------------
 Cartesian Forces:  Max     0.061295121 RMS     0.030921948

 GradGradGradGradGradGradGradGradGradGradGradGradGradGradGradGradGradGrad
 Berny optimization.
 FormGI is forming the generalized inverse of G from B-inverse, IUseBI=4.
 Internal  Forces:  Max     0.062221892 RMS     0.036518587
 Search for a saddle point.
 Step number   3 out of a maximum of  100
 All quantities printed in internal units (Hartrees-Bohrs-Radians)
 Swapping is turned off.
 Update second derivatives using D2CorX and points    1    2    3
 The second derivative matrix:
                          R1        R2        A1
           R1           0.02086
           R2          -0.00845   0.49157
           A1           0.02584  -0.00223   0.12784
 ITU=  0  0  0
     Eigenvalues ---    0.01482   0.13371   0.49175
 Eigenvectors required to have negative eigenvalues:
                          R1        A1        R2
   1                   -0.97479   0.22253  -0.01624
 RFO step:  Lambda0=7.103441485D-02 Lambda=-5.84567379D-05.
 Linear search not attempted -- option 19 set.
 Iteration  1 RMS(Cart)=  0.01771237 RMS(Int)=  0.00024509
 Iteration  2 RMS(Cart)=  0.00018552 RMS(Int)=  0.00000001
 Iteration  3 RMS(Cart)=  0.00000001 RMS(Int)=  0.00000000
 ClnCor:  largest displacement from symmetrization is 3.54D-15 for atom     3.
 Variable       Old X    -DE/DX   Delta X   Delta X   Delta X     New X
                                 (Linear)    (Quad)   (Total)
    R1        3.98026  -0.06222   0.00000   0.01572   0.01572   3.99597
    R2        1.84998  -0.00087   0.00000   0.00048   0.00048   1.85046
    A1        1.53707   0.01134   0.00000  -0.02502  -0.02502   1.51205
         Item               Value     Threshold  Converged?
 Maximum Force            0.062222     0.000450     NO 
 RMS     Force            0.036519     0.000300     NO 
 Maximum Displacement     0.017377     0.001800     NO 
 RMS     Displacement     0.017770     0.001200     NO 
 Predicted change in Energy= 1.294392D-03
 GradGradGradGradGradGradGradGradGradGradGradGradGradGradGradGradGradGrad

                          Input orientation:                          
 ---------------------------------------------------------------------
 Center     Atomic      Atomic             Coordinates (Angstroms)
 Number     Number       Type             X           Y           Z
 ---------------------------------------------------------------------
      1          8           0       -2.067758    0.064130   -1.492531
      2         17           0       -2.349867    1.935000   -0.548232
      3          1           0       -1.146049    0.351044   -1.656875
 ---------------------------------------------------------------------
                    Distance matrix (angstroms):
                    1          2          3
     1  O    0.000000
     2  Cl   2.114577   0.000000
     3  H    0.979222   2.277538   0.000000
 Stoichiometry    ClHO
 Framework group  CS[SG(ClHO)]
 Deg. of freedom     3
 Full point group                 CS      NOp   2
 Largest Abelian subgroup         CS      NOp   2
 Largest concise Abelian subgroup C1      NOp   1
                         Standard orientation:                         
 ---------------------------------------------------------------------
 Center     Atomic      Atomic             Coordinates (Angstroms)
 Number     Number       Type             X           Y           Z
 ---------------------------------------------------------------------
      1          8           0        0.037597    1.384819   -0.000000
      2         17           0        0.037597   -0.729758    0.000000
      3          1           0       -0.939936    1.327330   -0.000000
 ---------------------------------------------------------------------
 Rotational constants (GHZ):         556.4673287           9.9038018           9.7306198
 Standard basis: SVP (5D, 7F)
 There are    29 symmetry adapted cartesian basis functions of A'  symmetry.
 There are    10 symmetry adapted cartesian basis functions of A"  symmetry.
 There are    27 symmetry adapted basis functions of A'  symmetry.
 There are    10 symmetry adapted basis functions of A"  symmetry.
    37 basis functions,    69 primitive gaussians,    39 cartesian basis functions
    13 alpha electrons       13 beta electrons
       nuclear repulsion energy        42.3074009775 Hartrees.
 NAtoms=    3 NActive=    3 NUniq=    3 SFac= 1.00D+00 NAtFMM=   60 NAOKFM=F Big=F
 Integral buffers will be    131072 words long.
 Raffenetti 2 integral format.
 Two-electron integral symmetry is turned on.
 Nuclear repulsion after empirical dispersion term =       42.3057703716 Hartrees.
 One-electron integrals computed using PRISM.
 NBasis=    37 RedAO= T EigKep=  5.00D-02  NBF=    27    10
 NBsUse=    37 1.00D-06 EigRej= -1.00D+00 NBFU=    27    10
 Initial guess from the checkpoint file:  "/tmp/Gau-32377.chk"
 B after Tr=    -0.000000   -0.000000    0.000000
         Rot=    1.000000   -0.000000    0.000000   -0.000306 Ang=  -0.04 deg.
 Initial guess orbital symmetries:
       Occupied  (A') (A') (A') (A') (A') (A") (A') (A') (A') (A')
                 (A") (A') (A")
       Virtual   (A') (A') (A') (A') (A') (A") (A') (A') (A") (A')
                 (A") (A') (A') (A") (A') (A') (A") (A') (A') (A")
                 (A') (A') (A") (A')
 Keep R1 ints in memory in symmetry-blocked form, NReq=7153137.
 Requested convergence on RMS density matrix=1.00D-08 within 128 cycles.
 Requested convergence on MAX density matrix=1.00D-06.
 Requested convergence on             energy=1.00D-06.
 No special actions if energy rises.
 SCF Done:  E(RB3LYP) =  -535.726395953     A.U. after    9 cycles
            NFock=  9  Conv=0.96D-08     -V/T= 2.0032
 Calling FoFJK, ICntrl=      2127 FMM=F ISym2X=1 I1Cent= 0 IOpClX= 0 NMat=1 NMatS=1 NMatT=0.
 ***** Axes restored to original set *****
 -------------------------------------------------------------------
 Center     Atomic                   Forces (Hartrees/Bohr)
 Number     Number              X              Y              Z
 -------------------------------------------------------------------
      1        8          -0.005383084    0.062465159    0.030235467
      2       17           0.004899060   -0.055555943   -0.026926838
      3        1           0.000484024   -0.006909216   -0.003308629
 -------------------------------------------------------------------
 Cartesian Forces:  Max     0.062465159 RMS     0.031161754

 GradGradGradGradGradGradGradGradGradGradGradGradGradGradGradGradGradGrad
 Berny optimization.
 FormGI is forming the generalized inverse of G from B-inverse, IUseBI=4.
 Internal  Forces:  Max     0.061831235 RMS     0.036616765
 Search for a saddle point.
 Step number   4 out of a maximum of  100
 All quantities printed in internal units (Hartrees-Bohrs-Radians)
 Swapping is turned off.
 Update second derivatives using D2CorX and points    1    2    3    4
 The second derivative matrix:
                          R1        R2        A1
           R1           0.01896
           R2          -0.00893   0.49147
           A1           0.02735  -0.00183   0.12682
 ITU=  0  0  0  0
     Eigenvalues ---    0.01228   0.13332   0.49166
 Eigenvectors required to have negative eigenvalues:
                          R1        A1        R2
   1                   -0.97256   0.23201  -0.01724
 RFO step:  Lambda0=6.985555166D-02 Lambda=-3.19660088D-06.
 Linear search not attempted -- option 19 set.
 Iteration  1 RMS(Cart)=  0.00418917 RMS(Int)=  0.00001364
 Iteration  2 RMS(Cart)=  0.00001033 RMS(Int)=  0.00000000
 Iteration  3 RMS(Cart)=  0.00000000 RMS(Int)=  0.00000000
 ClnCor:  largest displacement from symmetrization is 1.51D-15 for atom     3.
 Variable       Old X    -DE/DX   Delta X   Delta X   Delta X     New X
                                 (Linear)    (Quad)   (Total)
    R1        3.99597  -0.06183   0.00000   0.00362   0.00362   3.99959
    R2        1.85046  -0.00101   0.00000   0.00021   0.00021   1.85067
    A1        1.51205   0.01408   0.00000  -0.00589  -0.00589   1.50617
         Item               Value     Threshold  Converged?
 Maximum Force            0.061831     0.000450     NO 
 RMS     Force            0.036617     0.000300     NO 
 Maximum Displacement     0.004112     0.001800     NO 
 RMS     Displacement     0.004192     0.001200     NO 
 Predicted change in Energy= 3.085406D-04
 GradGradGradGradGradGradGradGradGradGradGradGradGradGradGradGradGradGrad

                          Input orientation:                          
 ---------------------------------------------------------------------
 Center     Atomic      Atomic             Coordinates (Angstroms)
 Number     Number       Type             X           Y           Z
 ---------------------------------------------------------------------
      1          8           0       -2.067955    0.061981   -1.493449
      2         17           0       -2.348631    1.934972   -0.548640
      3          1           0       -1.147088    0.353220   -1.655549
 ---------------------------------------------------------------------
                    Distance matrix (angstroms):
                    1          2          3
     1  O    0.000000
     2  Cl   2.116492   0.000000
     3  H    0.979333   2.273960   0.000000
 Stoichiometry    ClHO
 Framework group  CS[SG(ClHO)]
 Deg. of freedom     3
 Full point group                 CS      NOp   2
 Largest Abelian subgroup         CS      NOp   2
 Largest concise Abelian subgroup C1      NOp   1
                         Standard orientation:                         
 ---------------------------------------------------------------------
 Center     Atomic      Atomic             Coordinates (Angstroms)
 Number     Number       Type             X           Y           Z
 ---------------------------------------------------------------------
      1          8           0        0.037588    1.386293    0.000000
      2         17           0        0.037588   -0.730199   -0.000000
      3          1           0       -0.939700    1.323043    0.000000
 ---------------------------------------------------------------------
 Rotational constants (GHZ):         556.5717335           9.8890015           9.7163640
 Standard basis: SVP (5D, 7F)
 There are    29 symmetry adapted cartesian basis functions of A'  symmetry.
 There are    10 symmetry adapted cartesian basis functions of A"  symmetry.
 There are    27 symmetry adapted basis functions of A'  symmetry.
 There are    10 symmetry adapted basis functions of A"  symmetry.
    37 basis functions,    69 primitive gaussians,    39 cartesian basis functions
    13 alpha electrons       13 beta electrons
       nuclear repulsion energy        42.2823434591 Hartrees.
 NAtoms=    3 NActive=    3 NUniq=    3 SFac= 1.00D+00 NAtFMM=   60 NAOKFM=F Big=F
 Integral buffers will be    131072 words long.
 Raffenetti 2 integral format.
 Two-electron integral symmetry is turned on.
 Nuclear repulsion after empirical dispersion term =       42.2807117362 Hartrees.
 One-electron integrals computed using PRISM.
 NBasis=    37 RedAO= T EigKep=  5.01D-02  NBF=    27    10
 NBsUse=    37 1.00D-06 EigRej= -1.00D+00 NBFU=    27    10
 Initial guess from the checkpoint file:  "/tmp/Gau-32377.chk"
 B after Tr=    -0.000000    0.000000   -0.000000
         Rot=    1.000000    0.000000   -0.000000   -0.000071 Ang=  -0.01 deg.
 Initial guess orbital symmetries:
       Occupied  (A') (A') (A') (A') (A') (A") (A') (A') (A') (A')
                 (A") (A') (A")
       Virtual   (A') (A') (A') (A') (A') (A") (A') (A') (A") (A')
                 (A") (A') (A') (A") (A') (A') (A") (A') (A') (A")
                 (A') (A') (A") (A')
 Keep R1 ints in memory in symmetry-blocked form, NReq=7153137.
 Requested convergence on RMS density matrix=1.00D-08 within 128 cycles.
 Requested convergence on MAX density matrix=1.00D-06.
 Requested convergence on             energy=1.00D-06.
 No special actions if energy rises.
 SCF Done:  E(RB3LYP) =  -535.726087444     A.U. after    8 cycles
            NFock=  8  Conv=0.74D-08     -V/T= 2.0032
 Calling FoFJK, ICntrl=      2127 FMM=F ISym2X=1 I1Cent= 0 IOpClX= 0 NMat=1 NMatS=1 NMatT=0.
 ***** Axes restored to original set *****
 -------------------------------------------------------------------
 Center     Atomic                   Forces (Hartrees/Bohr)
 Number     Number              X              Y              Z
 -------------------------------------------------------------------
      1        8          -0.005200472    0.062739454    0.030302157
      2       17           0.004686379   -0.055513792   -0.026839459
      3        1           0.000514093   -0.007225662   -0.003462698
 -------------------------------------------------------------------
 Cartesian Forces:  Max     0.062739454 RMS     0.031216216

 GradGradGradGradGradGradGradGradGradGradGradGradGradGradGradGradGradGrad
 Berny optimization.
 FormGI is forming the generalized inverse of G from B-inverse, IUseBI=4.
 Internal  Forces:  Max     0.061729642 RMS     0.036644459
 Search for a saddle point.
 Step number   5 out of a maximum of  100
 All quantities printed in internal units (Hartrees-Bohrs-Radians)
 Swapping is turned off.
 Update second derivatives using D2CorX and points    2    3    4    5
 The second derivative matrix:
                          R1        R2        A1
           R1           0.01822
           R2          -0.00911   0.49145
           A1           0.02813  -0.00159   0.12620
 ITU=  0  0  0  0
     Eigenvalues ---    0.01118   0.13305   0.49163
 Eigenvectors required to have negative eigenvalues:
                          R1        A1        R2
   1                   -0.97127   0.23733  -0.01764
 RFO step:  Lambda0=6.930491147D-02 Lambda=-9.33235623D-07.
 Linear search not attempted -- option 19 set.
 Iteration  1 RMS(Cart)=  0.00228351 RMS(Int)=  0.00000404
 Iteration  2 RMS(Cart)=  0.00000304 RMS(Int)=  0.00000000
 Iteration  3 RMS(Cart)=  0.00000000 RMS(Int)=  0.00000000
 ClnCor:  largest displacement from symmetrization is 3.72D-15 for atom     3.
 Variable       Old X    -DE/DX   Delta X   Delta X   Delta X     New X
                                 (Linear)    (Quad)   (Total)
    R1        3.99959  -0.06173   0.00000   0.00194   0.00194   4.00153
    R2        1.85067  -0.00109   0.00000   0.00008   0.00008   1.85075
    A1        1.50617   0.01472   0.00000  -0.00320  -0.00320   1.50297
         Item               Value     Threshold  Converged?
 Maximum Force            0.061730     0.000450     NO 
 RMS     Force            0.036644     0.000300     NO 
 Maximum Displacement     0.002238     0.001800     NO 
 RMS     Displacement     0.002284     0.001200     NO 
 Predicted change in Energy= 1.675355D-04
 GradGradGradGradGradGradGradGradGradGradGradGradGradGradGradGradGradGrad

                          Input orientation:                          
 ---------------------------------------------------------------------
 Center     Atomic      Atomic             Coordinates (Angstroms)
 Number     Number       Type             X           Y           Z
 ---------------------------------------------------------------------
      1          8           0       -2.068051    0.060820   -1.493948
      2         17           0       -2.347955    1.934950   -0.548867
      3          1           0       -1.147668    0.354405   -1.654823
 ---------------------------------------------------------------------
                    Distance matrix (angstroms):
                    1          2          3
     1  O    0.000000
     2  Cl   2.117519   0.000000
     3  H    0.979376   2.271993   0.000000
 Stoichiometry    ClHO
 Framework group  CS[SG(ClHO)]
 Deg. of freedom     3
 Full point group                 CS      NOp   2
 Largest Abelian subgroup         CS      NOp   2
 Largest concise Abelian subgroup C1      NOp   1
                         Standard orientation:                         
 ---------------------------------------------------------------------
 Center     Atomic      Atomic             Coordinates (Angstroms)
 Number     Number       Type             X           Y           Z
 ---------------------------------------------------------------------
      1          8           0        0.037582    1.387085   -0.000000
      2         17           0        0.037582   -0.730434    0.000000
      3          1           0       -0.939542    1.320706   -0.000000
 ---------------------------------------------------------------------
 Rotational constants (GHZ):         556.6638538           9.8810877           9.7087520
 Standard basis: SVP (5D, 7F)
 There are    29 symmetry adapted cartesian basis functions of A'  symmetry.
 There are    10 symmetry adapted cartesian basis functions of A"  symmetry.
 There are    27 symmetry adapted basis functions of A'  symmetry.
 There are    10 symmetry adapted basis functions of A"  symmetry.
    37 basis functions,    69 primitive gaussians,    39 cartesian basis functions
    13 alpha electrons       13 beta electrons
       nuclear repulsion energy        42.2690782056 Hartrees.
 NAtoms=    3 NActive=    3 NUniq=    3 SFac= 1.00D+00 NAtFMM=   60 NAOKFM=F Big=F
 Integral buffers will be    131072 words long.
 Raffenetti 2 integral format.
 Two-electron integral symmetry is turned on.
 Nuclear repulsion after empirical dispersion term =       42.2674458777 Hartrees.
 One-electron integrals computed using PRISM.
 NBasis=    37 RedAO= T EigKep=  5.01D-02  NBF=    27    10
 NBsUse=    37 1.00D-06 EigRej= -1.00D+00 NBFU=    27    10
 Initial guess from the checkpoint file:  "/tmp/Gau-32377.chk"
 B after Tr=     0.000000   -0.000000   -0.000000
         Rot=    1.000000    0.000000   -0.000000   -0.000038 Ang=  -0.00 deg.
 Initial guess orbital symmetries:
       Occupied  (A') (A') (A') (A') (A') (A") (A') (A') (A') (A')
                 (A") (A') (A")
       Virtual   (A') (A') (A') (A') (A') (A") (A') (A') (A") (A')
                 (A") (A') (A') (A") (A') (A') (A") (A') (A') (A")
                 (A') (A') (A") (A')
 Keep R1 ints in memory in symmetry-blocked form, NReq=7153137.
 Requested convergence on RMS density matrix=1.00D-08 within 128 cycles.
 Requested convergence on MAX density matrix=1.00D-06.
 Requested convergence on             energy=1.00D-06.
 No special actions if energy rises.
 SCF Done:  E(RB3LYP) =  -535.725919911     A.U. after    8 cycles
            NFock=  8  Conv=0.41D-08     -V/T= 2.0032
 Calling FoFJK, ICntrl=      2127 FMM=F ISym2X=1 I1Cent= 0 IOpClX= 0 NMat=1 NMatS=1 NMatT=0.
 ***** Axes restored to original set *****
 -------------------------------------------------------------------
 Center     Atomic                   Forces (Hartrees/Bohr)
 Number     Number              X              Y              Z
 -------------------------------------------------------------------
      1        8          -0.005117561    0.062881983    0.030340648
      2       17           0.004571097   -0.055489292   -0.026791342
      3        1           0.000546464   -0.007392691   -0.003549305
 -------------------------------------------------------------------
 Cartesian Forces:  Max     0.062881983 RMS     0.031244855

 GradGradGradGradGradGradGradGradGradGradGradGradGradGradGradGradGradGrad
 Berny optimization.
 FormGI is forming the generalized inverse of G from B-inverse, IUseBI=4.
 Internal  Forces:  Max     0.061672891 RMS     0.036660064
 Search for a saddle point.
 Step number   6 out of a maximum of  100
 All quantities printed in internal units (Hartrees-Bohrs-Radians)
 Swapping is turned off.
 Second derivative matrix not updated -- analytic derivatives used.
 The second derivative matrix:
                          R1        R2        A1
           R1           0.01822
           R2          -0.00911   0.49145
           A1           0.02813  -0.00159   0.12620
 ITU=  0  0  0  0
     Eigenvalues ---    0.01118   0.13305   0.49163
 Eigenvectors required to have negative eigenvalues:
                          R1        A1        R2
   1                   -0.97127   0.23733  -0.01764
 RFO step:  Lambda0=6.933281570D-02 Lambda= 0.00000000D+00.
 Linear search not attempted -- option 19 set.
 Iteration  1 RMS(Cart)=  0.00000344 RMS(Int)=  0.00000000
 Iteration  2 RMS(Cart)=  0.00000000 RMS(Int)=  0.00000000
 ClnCor:  largest displacement from symmetrization is 3.82D-15 for atom     3.
 Variable       Old X    -DE/DX   Delta X   Delta X   Delta X     New X
                                 (Linear)    (Quad)   (Total)
    R1        4.00153  -0.06167   0.00000   0.00000   0.00000   4.00153
    R2        1.85075  -0.00112   0.00000   0.00000   0.00000   1.85075
    A1        1.50297   0.01507   0.00000  -0.00000  -0.00000   1.50296
         Item               Value     Threshold  Converged?
 Maximum Force            0.061673     0.000450     NO 
 RMS     Force            0.036660     0.000300     NO 
 Maximum Displacement     0.000003     0.001800     YES
 RMS     Displacement     0.000003     0.001200     YES
 Predicted change in Energy= 2.611982D-07
 GradGradGradGradGradGradGradGradGradGradGradGradGradGradGradGradGradGrad

                          Input orientation:                          
 ---------------------------------------------------------------------
 Center     Atomic      Atomic             Coordinates (Angstroms)
 Number     Number       Type             X           Y           Z
 ---------------------------------------------------------------------
      1          8           0       -2.068051    0.060818   -1.493949
      2         17           0       -2.347954    1.934950   -0.548867
      3          1           0       -1.147669    0.354407   -1.654822
 ---------------------------------------------------------------------
                    Distance matrix (angstroms):
                    1          2          3
     1  O    0.000000
     2  Cl   2.117521   0.000000
     3  H    0.979377   2.271990   0.000000
 Stoichiometry    ClHO
 Framework group  CS[SG(ClHO)]
 Deg. of freedom     3
 Full point group                 CS      NOp   2
 Largest Abelian subgroup         CS      NOp   2
 Largest concise Abelian subgroup C1      NOp   1
                         Standard orientation:                         
 ---------------------------------------------------------------------
 Center     Atomic      Atomic             Coordinates (Angstroms)
 Number     Number       Type             X           Y           Z
 ---------------------------------------------------------------------
      1          8           0        0.037582    1.387086   -0.000000
      2         17           0        0.037582   -0.730435    0.000000
      3          1           0       -0.939543    1.320703   -0.000000
 ---------------------------------------------------------------------
 Rotational constants (GHZ):         556.6635520           9.8810753           9.7087400
 Standard basis: SVP (5D, 7F)
 There are    29 symmetry adapted cartesian basis functions of A'  symmetry.
 There are    10 symmetry adapted cartesian basis functions of A"  symmetry.
 There are    27 symmetry adapted basis functions of A'  symmetry.
 There are    10 symmetry adapted basis functions of A"  symmetry.
    37 basis functions,    69 primitive gaussians,    39 cartesian basis functions
    13 alpha electrons       13 beta electrons
       nuclear repulsion energy        42.2690554260 Hartrees.
 NAtoms=    3 NActive=    3 NUniq=    3 SFac= 1.00D+00 NAtFMM=   60 NAOKFM=F Big=F
 Integral buffers will be    131072 words long.
 Raffenetti 2 integral format.
 Two-electron integral symmetry is turned on.
 Nuclear repulsion after empirical dispersion term =       42.2674230972 Hartrees.
 One-electron integrals computed using PRISM.
 NBasis=    37 RedAO= T EigKep=  5.01D-02  NBF=    27    10
 NBsUse=    37 1.00D-06 EigRej= -1.00D+00 NBFU=    27    10
 Initial guess from the checkpoint file:  "/tmp/Gau-32377.chk"
 B after Tr=    -0.000000    0.000000    0.000000
         Rot=    1.000000   -0.000000    0.000000   -0.000000 Ang=  -0.00 deg.
 Initial guess orbital symmetries:
       Occupied  (A') (A') (A') (A') (A') (A") (A') (A') (A') (A')
                 (A") (A') (A")
       Virtual   (A') (A') (A') (A') (A') (A") (A') (A') (A") (A')
                 (A") (A') (A') (A") (A') (A') (A") (A') (A') (A")
                 (A') (A') (A") (A')
 Keep R1 ints in memory in symmetry-blocked form, NReq=7153137.
 Requested convergence on RMS density matrix=1.00D-08 within 128 cycles.
 Requested convergence on MAX density matrix=1.00D-06.
 Requested convergence on             energy=1.00D-06.
 No special actions if energy rises.
 SCF Done:  E(RB3LYP) =  -535.725919650     A.U. after    4 cycles
            NFock=  4  Conv=0.30D-08     -V/T= 2.0032
 Calling FoFJK, ICntrl=      2127 FMM=F ISym2X=1 I1Cent= 0 IOpClX= 0 NMat=1 NMatS=1 NMatT=0.
 ***** Axes restored to original set *****
 -------------------------------------------------------------------
 Center     Atomic                   Forces (Hartrees/Bohr)
 Number     Number              X              Y              Z
 -------------------------------------------------------------------
      1        8          -0.005117092    0.062882305    0.030340644
      2       17           0.004570919   -0.055489253   -0.026791267
      3        1           0.000546173   -0.007393052   -0.003549377
 -------------------------------------------------------------------
 Cartesian Forces:  Max     0.062882305 RMS     0.031244910

 GradGradGradGradGradGradGradGradGradGradGradGradGradGradGradGradGradGrad
 Berny optimization.
 FormGI is forming the generalized inverse of G from B-inverse, IUseBI=4.
 Internal  Forces:  Max     0.061672803 RMS     0.036660091
 Search for a saddle point.
 Step number   7 out of a maximum of  100
 All quantities printed in internal units (Hartrees-Bohrs-Radians)
 Swapping is turned off.
 Update second derivatives using D2CorX and points    4    5    7
 The second derivative matrix:
                          R1        R2        A1
           R1           0.01794
           R2          -0.00918   0.49144
           A1           0.02840  -0.00149   0.12608
 ITU=  0  0  0  0
     Eigenvalues ---    0.01079   0.13305   0.49163
 Eigenvectors required to have negative eigenvalues:
                          R1        A1        R2
   1                   -0.97088   0.23890  -0.01779
 RFO step:  Lambda0=6.911865594D-02 Lambda=-7.95895755D-08.
 Linear search not attempted -- option 19 set.
 Iteration  1 RMS(Cart)=  0.00066753 RMS(Int)=  0.00000035
 Iteration  2 RMS(Cart)=  0.00000026 RMS(Int)=  0.00000000
 ClnCor:  largest displacement from symmetrization is 3.21D-15 for atom     1.
 Variable       Old X    -DE/DX   Delta X   Delta X   Delta X     New X
                                 (Linear)    (Quad)   (Total)
    R1        4.00153  -0.06167   0.00000   0.00057   0.00057   4.00210
    R2        1.85075  -0.00112   0.00000   0.00003   0.00003   1.85078
    A1        1.50296   0.01507   0.00000  -0.00093  -0.00093   1.50203
         Item               Value     Threshold  Converged?
 Maximum Force            0.061673     0.000450     NO 
 RMS     Force            0.036660     0.000300     NO 
 Maximum Displacement     0.000655     0.001800     YES
 RMS     Displacement     0.000668     0.001200     YES
 Predicted change in Energy= 4.901938D-05
 GradGradGradGradGradGradGradGradGradGradGradGradGradGradGradGradGradGrad

                          Input orientation:                          
 ---------------------------------------------------------------------
 Center     Atomic      Atomic             Coordinates (Angstroms)
 Number     Number       Type             X           Y           Z
 ---------------------------------------------------------------------
      1          8           0       -2.068080    0.060479   -1.494094
      2         17           0       -2.347757    1.934942   -0.548934
      3          1           0       -1.147838    0.354753   -1.654609
 ---------------------------------------------------------------------
                    Distance matrix (angstroms):
                    1          2          3
     1  O    0.000000
     2  Cl   2.117820   0.000000
     3  H    0.979391   2.271414   0.000000
 Stoichiometry    ClHO
 Framework group  CS[SG(ClHO)]
 Deg. of freedom     3
 Full point group                 CS      NOp   2
 Largest Abelian subgroup         CS      NOp   2
 Largest concise Abelian subgroup C1      NOp   1
                         Standard orientation:                         
 ---------------------------------------------------------------------
 Center     Atomic      Atomic             Coordinates (Angstroms)
 Number     Number       Type             X           Y           Z
 ---------------------------------------------------------------------
      1          8           0        0.037580    1.387317    0.000000
      2         17           0        0.037580   -0.730503    0.000000
      3          1           0       -0.939497    1.320019   -0.000000
 ---------------------------------------------------------------------
 Rotational constants (GHZ):         556.6902283           9.8787743           9.7065267
 Standard basis: SVP (5D, 7F)
 There are    29 symmetry adapted cartesian basis functions of A'  symmetry.
 There are    10 symmetry adapted cartesian basis functions of A"  symmetry.
 There are    27 symmetry adapted basis functions of A'  symmetry.
 There are    10 symmetry adapted basis functions of A"  symmetry.
    37 basis functions,    69 primitive gaussians,    39 cartesian basis functions
    13 alpha electrons       13 beta electrons
       nuclear repulsion energy        42.2651931763 Hartrees.
 NAtoms=    3 NActive=    3 NUniq=    3 SFac= 1.00D+00 NAtFMM=   60 NAOKFM=F Big=F
 Integral buffers will be    131072 words long.
 Raffenetti 2 integral format.
 Two-electron integral symmetry is turned on.
 Nuclear repulsion after empirical dispersion term =       42.2635606707 Hartrees.
 One-electron integrals computed using PRISM.
 NBasis=    37 RedAO= T EigKep=  5.01D-02  NBF=    27    10
 NBsUse=    37 1.00D-06 EigRej= -1.00D+00 NBFU=    27    10
 Initial guess from the checkpoint file:  "/tmp/Gau-32377.chk"
 B after Tr=     0.000000   -0.000000   -0.000000
         Rot=    1.000000   -0.000000    0.000000   -0.000011 Ang=  -0.00 deg.
 Initial guess orbital symmetries:
       Occupied  (A') (A') (A') (A') (A') (A") (A') (A') (A') (A')
                 (A") (A') (A")
       Virtual   (A') (A') (A') (A') (A') (A") (A') (A') (A") (A')
                 (A") (A') (A') (A") (A') (A') (A") (A') (A') (A")
                 (A') (A') (A") (A')
 Keep R1 ints in memory in symmetry-blocked form, NReq=7153137.
 Requested convergence on RMS density matrix=1.00D-08 within 128 cycles.
 Requested convergence on MAX density matrix=1.00D-06.
 Requested convergence on             energy=1.00D-06.
 No special actions if energy rises.
 SCF Done:  E(RB3LYP) =  -535.725870630     A.U. after    7 cycles
            NFock=  7  Conv=0.76D-08     -V/T= 2.0032
 Calling FoFJK, ICntrl=      2127 FMM=F ISym2X=1 I1Cent= 0 IOpClX= 0 NMat=1 NMatS=1 NMatT=0.
 ***** Axes restored to original set *****
 -------------------------------------------------------------------
 Center     Atomic                   Forces (Hartrees/Bohr)
 Number     Number              X              Y              Z
 -------------------------------------------------------------------
      1        8          -0.005091170    0.062924227    0.030351474
      2       17           0.004537227   -0.055481873   -0.026777105
      3        1           0.000553943   -0.007442354   -0.003574369
 -------------------------------------------------------------------
 Cartesian Forces:  Max     0.062924227 RMS     0.031253266

 GradGradGradGradGradGradGradGradGradGradGradGradGradGradGradGradGradGrad
 Berny optimization.
 FormGI is forming the generalized inverse of G from B-inverse, IUseBI=4.
 Internal  Forces:  Max     0.061655995 RMS     0.036664749
 Search for a saddle point.
 Step number   8 out of a maximum of  100
 All quantities printed in internal units (Hartrees-Bohrs-Radians)
 Swapping is turned off.
 Update second derivatives using D2CorX and points    5    8
 The second derivative matrix:
                          R1        R2        A1
           R1           0.01792
           R2          -0.00918   0.49144
           A1           0.02842  -0.00148   0.12606
 ITU=  0  0  0  0
     Eigenvalues ---    0.01075   0.13304   0.49163
 Eigenvectors required to have negative eigenvalues:
                          R1        A1        R2
   1                   -0.97084   0.23906  -0.01780
 RFO step:  Lambda0=6.910915431D-02 Lambda= 0.00000000D+00.
 Linear search not attempted -- option 19 set.
 Iteration  1 RMS(Cart)=  0.00006955 RMS(Int)=  0.00000000
 Iteration  2 RMS(Cart)=  0.00000000 RMS(Int)=  0.00000000
 ClnCor:  largest displacement from symmetrization is 4.56D-15 for atom     3.
 Variable       Old X    -DE/DX   Delta X   Delta X   Delta X     New X
                                 (Linear)    (Quad)   (Total)
    R1        4.00210  -0.06166   0.00000   0.00006   0.00006   4.00216
    R2        1.85078  -0.00113   0.00000   0.00000   0.00000   1.85078
    A1        1.50203   0.01517   0.00000  -0.00010  -0.00010   1.50193
         Item               Value     Threshold  Converged?
 Maximum Force            0.061656     0.000450     NO 
 RMS     Force            0.036665     0.000300     NO 
 Maximum Displacement     0.000068     0.001800     YES
 RMS     Displacement     0.000070     0.001200     YES
 Predicted change in Energy= 5.105254D-06
 GradGradGradGradGradGradGradGradGradGradGradGradGradGradGradGradGradGrad

                          Input orientation:                          
 ---------------------------------------------------------------------
 Center     Atomic      Atomic             Coordinates (Angstroms)
 Number     Number       Type             X           Y           Z
 ---------------------------------------------------------------------
      1          8           0       -2.068083    0.060443   -1.494110
      2         17           0       -2.347736    1.934942   -0.548941
      3          1           0       -1.147856    0.354789   -1.654587
 ---------------------------------------------------------------------
                    Distance matrix (angstroms):
                    1          2          3
     1  O    0.000000
     2  Cl   2.117851   0.000000
     3  H    0.979393   2.271354   0.000000
 Stoichiometry    ClHO
 Framework group  CS[SG(ClHO)]
 Deg. of freedom     3
 Full point group                 CS      NOp   2
 Largest Abelian subgroup         CS      NOp   2
 Largest concise Abelian subgroup C1      NOp   1
                         Standard orientation:                         
 ---------------------------------------------------------------------
 Center     Atomic      Atomic             Coordinates (Angstroms)
 Number     Number       Type             X           Y           Z
 ---------------------------------------------------------------------
      1          8           0        0.037580    1.387341   -0.000000
      2         17           0        0.037580   -0.730510    0.000000
      3          1           0       -0.939492    1.319948   -0.000000
 ---------------------------------------------------------------------
 Rotational constants (GHZ):         556.6934044           9.8785350           9.7062965
 Standard basis: SVP (5D, 7F)
 There are    29 symmetry adapted cartesian basis functions of A'  symmetry.
 There are    10 symmetry adapted cartesian basis functions of A"  symmetry.
 There are    27 symmetry adapted basis functions of A'  symmetry.
 There are    10 symmetry adapted basis functions of A"  symmetry.
    37 basis functions,    69 primitive gaussians,    39 cartesian basis functions
    13 alpha electrons       13 beta electrons
       nuclear repulsion energy        42.2647930193 Hartrees.
 NAtoms=    3 NActive=    3 NUniq=    3 SFac= 1.00D+00 NAtFMM=   60 NAOKFM=F Big=F
 Integral buffers will be    131072 words long.
 Raffenetti 2 integral format.
 Two-electron integral symmetry is turned on.
 Nuclear repulsion after empirical dispersion term =       42.2631604954 Hartrees.
 One-electron integrals computed using PRISM.
 NBasis=    37 RedAO= T EigKep=  5.01D-02  NBF=    27    10
 NBsUse=    37 1.00D-06 EigRej= -1.00D+00 NBFU=    27    10
 Initial guess from the checkpoint file:  "/tmp/Gau-32377.chk"
 B after Tr=    -0.000000    0.000000    0.000000
         Rot=    1.000000    0.000000   -0.000000   -0.000001 Ang=  -0.00 deg.
 Initial guess orbital symmetries:
       Occupied  (A') (A') (A') (A') (A') (A") (A') (A') (A') (A')
                 (A") (A') (A")
       Virtual   (A') (A') (A') (A') (A') (A") (A') (A') (A") (A')
                 (A") (A') (A') (A") (A') (A') (A") (A') (A') (A")
                 (A') (A') (A") (A')
 Keep R1 ints in memory in symmetry-blocked form, NReq=7153137.
 Requested convergence on RMS density matrix=1.00D-08 within 128 cycles.
 Requested convergence on MAX density matrix=1.00D-06.
 Requested convergence on             energy=1.00D-06.
 No special actions if energy rises.
 SCF Done:  E(RB3LYP) =  -535.725865525     A.U. after    6 cycles
            NFock=  6  Conv=0.47D-08     -V/T= 2.0032
 Calling FoFJK, ICntrl=      2127 FMM=F ISym2X=1 I1Cent= 0 IOpClX= 0 NMat=1 NMatS=1 NMatT=0.
 ***** Axes restored to original set *****
 -------------------------------------------------------------------
 Center     Atomic                   Forces (Hartrees/Bohr)
 Number     Number              X              Y              Z
 -------------------------------------------------------------------
      1        8          -0.005088746    0.062928504    0.030352649
      2       17           0.004533727   -0.055481103   -0.026775632
      3        1           0.000555019   -0.007447401   -0.003577017
 -------------------------------------------------------------------
 Cartesian Forces:  Max     0.062928504 RMS     0.031254127

 GradGradGradGradGradGradGradGradGradGradGradGradGradGradGradGradGradGrad
 Berny optimization.
 FormGI is forming the generalized inverse of G from B-inverse, IUseBI=4.
 Internal  Forces:  Max     0.061654245 RMS     0.036665235
 Search for a saddle point.
 Step number   9 out of a maximum of  100
 All quantities printed in internal units (Hartrees-Bohrs-Radians)
 Swapping is turned off.
 Update second derivatives using D2CorX and points    6    7    9
 The second derivative matrix:
                          R1        R2        A1
           R1           0.01784
           R2          -0.00920   0.49144
           A1           0.02851  -0.00146   0.12600
 ITU=  0  0  0  0
     Eigenvalues ---    0.01064   0.13301   0.49163
 Eigenvectors required to have negative eigenvalues:
                          R1        A1        R2
   1                   -0.97070   0.23964  -0.01784
 RFO step:  Lambda0=6.904719705D-02 Lambda=-1.08146657D-08.
 Linear search not attempted -- option 19 set.
 Iteration  1 RMS(Cart)=  0.00024667 RMS(Int)=  0.00000005
 Iteration  2 RMS(Cart)=  0.00000004 RMS(Int)=  0.00000000
 ClnCor:  largest displacement from symmetrization is 2.59D-15 for atom     3.
 Variable       Old X    -DE/DX   Delta X   Delta X   Delta X     New X
                                 (Linear)    (Quad)   (Total)
    R1        4.00216  -0.06165   0.00000   0.00021   0.00021   4.00237
    R2        1.85078  -0.00113   0.00000   0.00001   0.00001   1.85079
    A1        1.50193   0.01518   0.00000  -0.00034  -0.00034   1.50159
         Item               Value     Threshold  Converged?
 Maximum Force            0.061654     0.000450     NO 
 RMS     Force            0.036665     0.000300     NO 
 Maximum Displacement     0.000242     0.001800     YES
 RMS     Displacement     0.000247     0.001200     YES
 Predicted change in Energy= 1.809325D-05
 GradGradGradGradGradGradGradGradGradGradGradGradGradGradGradGradGradGrad

                          Input orientation:                          
 ---------------------------------------------------------------------
 Center     Atomic      Atomic             Coordinates (Angstroms)
 Number     Number       Type             X           Y           Z
 ---------------------------------------------------------------------
      1          8           0       -2.068093    0.060318   -1.494164
      2         17           0       -2.347663    1.934939   -0.548966
      3          1           0       -1.147919    0.354917   -1.654509
 ---------------------------------------------------------------------
                    Distance matrix (angstroms):
                    1          2          3
     1  O    0.000000
     2  Cl   2.117961   0.000000
     3  H    0.979397   2.271141   0.000000
 Stoichiometry    ClHO
 Framework group  CS[SG(ClHO)]
 Deg. of freedom     3
 Full point group                 CS      NOp   2
 Largest Abelian subgroup         CS      NOp   2
 Largest concise Abelian subgroup C1      NOp   1
                         Standard orientation:                         
 ---------------------------------------------------------------------
 Center     Atomic      Atomic             Coordinates (Angstroms)
 Number     Number       Type             X           Y           Z
 ---------------------------------------------------------------------
      1          8           0        0.037579    1.387426   -0.000000
      2         17           0        0.037579   -0.730535   -0.000000
      3          1           0       -0.939473    1.319696    0.000000
 ---------------------------------------------------------------------
 Rotational constants (GHZ):         556.7049746           9.8776875           9.7054819
 Standard basis: SVP (5D, 7F)
 There are    29 symmetry adapted cartesian basis functions of A'  symmetry.
 There are    10 symmetry adapted cartesian basis functions of A"  symmetry.
 There are    27 symmetry adapted basis functions of A'  symmetry.
 There are    10 symmetry adapted basis functions of A"  symmetry.
    37 basis functions,    69 primitive gaussians,    39 cartesian basis functions
    13 alpha electrons       13 beta electrons
       nuclear repulsion energy        42.2633778408 Hartrees.
 NAtoms=    3 NActive=    3 NUniq=    3 SFac= 1.00D+00 NAtFMM=   60 NAOKFM=F Big=F
 Integral buffers will be    131072 words long.
 Raffenetti 2 integral format.
 Two-electron integral symmetry is turned on.
 Nuclear repulsion after empirical dispersion term =       42.2617452517 Hartrees.
 One-electron integrals computed using PRISM.
 NBasis=    37 RedAO= T EigKep=  5.01D-02  NBF=    27    10
 NBsUse=    37 1.00D-06 EigRej= -1.00D+00 NBFU=    27    10
 Initial guess from the checkpoint file:  "/tmp/Gau-32377.chk"
 B after Tr=    -0.000000   -0.000000   -0.000000
         Rot=    1.000000   -0.000000    0.000000   -0.000004 Ang=  -0.00 deg.
 Initial guess orbital symmetries:
       Occupied  (A') (A') (A') (A') (A') (A") (A') (A') (A') (A')
                 (A") (A') (A")
       Virtual   (A') (A') (A') (A') (A') (A") (A') (A') (A") (A')
                 (A") (A') (A') (A") (A') (A') (A") (A') (A') (A")
                 (A') (A') (A") (A')
 Keep R1 ints in memory in symmetry-blocked form, NReq=7153137.
 Requested convergence on RMS density matrix=1.00D-08 within 128 cycles.
 Requested convergence on MAX density matrix=1.00D-06.
 Requested convergence on             energy=1.00D-06.
 No special actions if energy rises.
 SCF Done:  E(RB3LYP) =  -535.725847432     A.U. after    7 cycles
            NFock=  7  Conv=0.28D-08     -V/T= 2.0032
 Calling FoFJK, ICntrl=      2127 FMM=F ISym2X=1 I1Cent= 0 IOpClX= 0 NMat=1 NMatS=1 NMatT=0.
 ***** Axes restored to original set *****
 -------------------------------------------------------------------
 Center     Atomic                   Forces (Hartrees/Bohr)
 Number     Number              X              Y              Z
 -------------------------------------------------------------------
      1        8          -0.005080330    0.062943606    0.030356846
      2       17           0.004521311   -0.055478359   -0.026770402
      3        1           0.000559019   -0.007465247   -0.003586444
 -------------------------------------------------------------------
 Cartesian Forces:  Max     0.062943606 RMS     0.031257169

 GradGradGradGradGradGradGradGradGradGradGradGradGradGradGradGradGradGrad
 Berny optimization.
 FormGI is forming the generalized inverse of G from B-inverse, IUseBI=4.
 Internal  Forces:  Max     0.061648027 RMS     0.036666962
 Search for a saddle point.
 Step number  10 out of a maximum of  100
 All quantities printed in internal units (Hartrees-Bohrs-Radians)
 Swapping is turned off.
 Update second derivatives using D2CorX and points    7   10
 The second derivative matrix:
                          R1        R2        A1
           R1           0.01783
           R2          -0.00920   0.49144
           A1           0.02852  -0.00145   0.12600
 ITU=  0  0  0  0
     Eigenvalues ---    0.01062   0.13302   0.49163
 Eigenvectors required to have negative eigenvalues:
                          R1        A1        R2
   1                   -0.97068   0.23970  -0.01785
 RFO step:  Lambda0=6.903991915D-02 Lambda= 0.00000000D+00.
 Linear search not attempted -- option 19 set.
 Iteration  1 RMS(Cart)=  0.00002378 RMS(Int)=  0.00000000
 Iteration  2 RMS(Cart)=  0.00000000 RMS(Int)=  0.00000000
 ClnCor:  largest displacement from symmetrization is 1.37D-15 for atom     3.
 Variable       Old X    -DE/DX   Delta X   Delta X   Delta X     New X
                                 (Linear)    (Quad)   (Total)
    R1        4.00237  -0.06165   0.00000   0.00002   0.00002   4.00239
    R2        1.85079  -0.00113   0.00000   0.00000   0.00000   1.85079
    A1        1.50159   0.01522   0.00000  -0.00003  -0.00003   1.50155
         Item               Value     Threshold  Converged?
 Maximum Force            0.061648     0.000450     NO 
 RMS     Force            0.036667     0.000300     NO 
 Maximum Displacement     0.000023     0.001800     YES
 RMS     Displacement     0.000024     0.001200     YES
 Predicted change in Energy= 1.748990D-06
 GradGradGradGradGradGradGradGradGradGradGradGradGradGradGradGradGradGrad

                          Input orientation:                          
 ---------------------------------------------------------------------
 Center     Atomic      Atomic             Coordinates (Angstroms)
 Number     Number       Type             X           Y           Z
 ---------------------------------------------------------------------
      1          8           0       -2.068094    0.060306   -1.494169
      2         17           0       -2.347656    1.934939   -0.548968
      3          1           0       -1.147925    0.354929   -1.654501
 ---------------------------------------------------------------------
                    Distance matrix (angstroms):
                    1          2          3
     1  O    0.000000
     2  Cl   2.117972   0.000000
     3  H    0.979398   2.271120   0.000000
 Stoichiometry    ClHO
 Framework group  CS[SG(ClHO)]
 Deg. of freedom     3
 Full point group                 CS      NOp   2
 Largest Abelian subgroup         CS      NOp   2
 Largest concise Abelian subgroup C1      NOp   1
                         Standard orientation:                         
 ---------------------------------------------------------------------
 Center     Atomic      Atomic             Coordinates (Angstroms)
 Number     Number       Type             X           Y           Z
 ---------------------------------------------------------------------
      1          8           0        0.037579    1.387434   -0.000000
      2         17           0        0.037579   -0.730538    0.000000
      3          1           0       -0.939472    1.319672   -0.000000
 ---------------------------------------------------------------------
 Rotational constants (GHZ):         556.7057178           9.8776057           9.7054031
 Standard basis: SVP (5D, 7F)
 There are    29 symmetry adapted cartesian basis functions of A'  symmetry.
 There are    10 symmetry adapted cartesian basis functions of A"  symmetry.
 There are    27 symmetry adapted basis functions of A'  symmetry.
 There are    10 symmetry adapted basis functions of A"  symmetry.
    37 basis functions,    69 primitive gaussians,    39 cartesian basis functions
    13 alpha electrons       13 beta electrons
       nuclear repulsion energy        42.2632394724 Hartrees.
 NAtoms=    3 NActive=    3 NUniq=    3 SFac= 1.00D+00 NAtFMM=   60 NAOKFM=F Big=F
 Integral buffers will be    131072 words long.
 Raffenetti 2 integral format.
 Two-electron integral symmetry is turned on.
 Nuclear repulsion after empirical dispersion term =       42.2616068770 Hartrees.
 One-electron integrals computed using PRISM.
 NBasis=    37 RedAO= T EigKep=  5.01D-02  NBF=    27    10
[...]
           A1           0.02852  -0.00145   0.12600
 ITU=  0  0  0  0
     Eigenvalues ---    0.01062   0.13302   0.49163
 Eigenvectors required to have negative eigenvalues:
                          R1        A1        R2
   1                   -0.97068   0.23970  -0.01785
 RFO step:  Lambda0=6.904025204D-02 Lambda= 0.00000000D+00.
 Linear search not attempted -- option 19 set.
 Iteration  1 RMS(Cart)=  0.00000000 RMS(Int)=  0.00000000
 ClnCor:  largest displacement from symmetrization is 1.66D-15 for atom     3.
 Variable       Old X    -DE/DX   Delta X   Delta X   Delta X     New X
                                 (Linear)    (Quad)   (Total)
    R1        4.00239  -0.06165   0.00000   0.00000   0.00000   4.00239
    R2        1.85079  -0.00113   0.00000  -0.00000  -0.00000   1.85079
    A1        1.50155   0.01522   0.00000   0.00000   0.00000   1.50155
         Item               Value     Threshold  Converged?
 Maximum Force            0.061647     0.000450     NO 
 RMS     Force            0.036667     0.000300     NO 
 Maximum Displacement     0.000000     0.001800     YES
 RMS     Displacement     0.000000     0.001200     YES
 Predicted change in Energy= 3.375597D-10
 GradGradGradGradGradGradGradGradGradGradGradGradGradGradGradGradGradGrad

                          Input orientation:                          
 ---------------------------------------------------------------------
 Center     Atomic      Atomic             Coordinates (Angstroms)
 Number     Number       Type             X           Y           Z
 ---------------------------------------------------------------------
      1          8           0       -2.068094    0.060306   -1.494169
      2         17           0       -2.347656    1.934939   -0.548968
      3          1           0       -1.147925    0.354929   -1.654501
 ---------------------------------------------------------------------
                    Distance matrix (angstroms):
                    1          2          3
     1  O    0.000000
     2  Cl   2.117973   0.000000
     3  H    0.979398   2.271121   0.000000
 Stoichiometry    ClHO
 Framework group  CS[SG(ClHO)]
 Deg. of freedom     3
 Full point group                 CS      NOp   2
 Largest Abelian subgroup         CS      NOp   2
 Largest concise Abelian subgroup C1      NOp   1
                         Standard orientation:                         
 ---------------------------------------------------------------------
 Center     Atomic      Atomic             Coordinates (Angstroms)
 Number     Number       Type             X           Y           Z
 ---------------------------------------------------------------------
      1          8           0        0.037579    1.387435   -0.000000
      2         17           0        0.037579   -0.730538    0.000000
      3          1           0       -0.939472    1.319672   -0.000000
 ---------------------------------------------------------------------
 Rotational constants (GHZ):         556.7057374           9.8775923           9.7053902
 Standard basis: SVP (5D, 7F)
 There are    29 symmetry adapted cartesian basis functions of A'  symmetry.
 There are    10 symmetry adapted cartesian basis functions of A"  symmetry.
 There are    27 symmetry adapted basis functions of A'  symmetry.
 There are    10 symmetry adapted basis functions of A"  symmetry.
    37 basis functions,    69 primitive gaussians,    39 cartesian basis functions
    13 alpha electrons       13 beta electrons
       nuclear repulsion energy        42.2632145817 Hartrees.
 NAtoms=    3 NActive=    3 NUniq=    3 SFac= 1.00D+00 NAtFMM=   60 NAOKFM=F Big=F
 Integral buffers will be    131072 words long.
 Raffenetti 2 integral format.
 Two-electron integral symmetry is turned on.
 Nuclear repulsion after empirical dispersion term =       42.2615819857 Hartrees.
 One-electron integrals computed using PRISM.
 NBasis=    37 RedAO= T EigKep=  5.01D-02  NBF=    27    10
 NBsUse=    37 1.00D-06 EigRej= -1.00D+00 NBFU=    27    10
 Initial guess from the checkpoint file:  "/tmp/Gau-32377.chk"
 B after Tr=     0.000000   -0.000000   -0.000000
         Rot=    1.000000    0.000000   -0.000000    0.000000 Ang=   0.00 deg.
 Initial guess orbital symmetries:
       Occupied  (A') (A') (A') (A') (A') (A") (A') (A') (A') (A')
                 (A") (A') (A")
       Virtual   (A') (A') (A') (A') (A') (A") (A') (A') (A") (A')
                 (A") (A') (A') (A") (A') (A') (A") (A') (A') (A")
                 (A') (A') (A") (A')
 Keep R1 ints in memory in symmetry-blocked form, NReq=7153137.
 Requested convergence on RMS density matrix=1.00D-08 within 128 cycles.
 Requested convergence on MAX density matrix=1.00D-06.
 Requested convergence on             energy=1.00D-06.
 No special actions if energy rises.
 SCF Done:  E(RB3LYP) =  -535.725845498     A.U. after    1 cycles
            NFock=  1  Conv=0.22D-09     -V/T= 2.0032
 Calling FoFJK, ICntrl=      2127 FMM=F ISym2X=1 I1Cent= 0 IOpClX= 0 NMat=1 NMatS=1 NMatT=0.
 ***** Axes restored to original set *****
 -------------------------------------------------------------------
 Center     Atomic                   Forces (Hartrees/Bohr)
 Number     Number              X              Y              Z
 -------------------------------------------------------------------
      1        8          -0.005079234    0.062945192    0.030357219
      2       17           0.004520114   -0.055478127   -0.026769912
      3        1           0.000559120   -0.007467066   -0.003587307
 -------------------------------------------------------------------
 Cartesian Forces:  Max     0.062945192 RMS     0.031257492

 GradGradGradGradGradGradGradGradGradGradGradGradGradGradGradGradGradGrad
 Berny optimization.
 Internal  Forces:  Max     0.061647463 RMS     0.036667155
 Search for a saddle point.
 Step number  99 out of a maximum of  100
 All quantities printed in internal units (Hartrees-Bohrs-Radians)
 Swapping is turned off.
 Update second derivatives using D2CorX and points   99
 The second derivative matrix:
                          R1        R2        A1
           R1           0.01783
           R2          -0.00920   0.49144
           A1           0.02852  -0.00145   0.12600
 ITU=  0  0  0  0
     Eigenvalues ---    0.01062   0.13302   0.49163
 Eigenvectors required to have negative eigenvalues:
                          R1        A1        R2
   1                   -0.97068   0.23970  -0.01785
 RFO step:  Lambda0=6.904025166D-02 Lambda= 0.00000000D+00.
 Linear search not attempted -- option 19 set.
 Iteration  1 RMS(Cart)=  0.00000000 RMS(Int)=  0.00000000
 ClnCor:  largest displacement from symmetrization is 2.48D-15 for atom     3.
 Variable       Old X    -DE/DX   Delta X   Delta X   Delta X     New X
                                 (Linear)    (Quad)   (Total)
    R1        4.00239  -0.06165   0.00000   0.00000   0.00000   4.00239
    R2        1.85079  -0.00113   0.00000   0.00000   0.00000   1.85079
    A1        1.50155   0.01522   0.00000  -0.00000  -0.00000   1.50155
         Item               Value     Threshold  Converged?
 Maximum Force            0.061647     0.000450     NO 
 RMS     Force            0.036667     0.000300     NO 
 Maximum Displacement     0.000000     0.001800     YES
 RMS     Displacement     0.000000     0.001200     YES
 Predicted change in Energy= 4.686185D-10
 GradGradGradGradGradGradGradGradGradGradGradGradGradGradGradGradGradGrad

                          Input orientation:                          
 ---------------------------------------------------------------------
 Center     Atomic      Atomic             Coordinates (Angstroms)
 Number     Number       Type             X           Y           Z
 ---------------------------------------------------------------------
      1          8           0       -2.068094    0.060306   -1.494169
      2         17           0       -2.347656    1.934939   -0.548968
      3          1           0       -1.147925    0.354929   -1.654501
 ---------------------------------------------------------------------
                    Distance matrix (angstroms):
                    1          2          3
     1  O    0.000000
     2  Cl   2.117973   0.000000
     3  H    0.979398   2.271121   0.000000
 Stoichiometry    ClHO
 Framework group  CS[SG(ClHO)]
 Deg. of freedom     3
 Full point group                 CS      NOp   2
 Largest Abelian subgroup         CS      NOp   2
 Largest concise Abelian subgroup C1      NOp   1
                         Standard orientation:                         
 ---------------------------------------------------------------------
 Center     Atomic      Atomic             Coordinates (Angstroms)
 Number     Number       Type             X           Y           Z
 ---------------------------------------------------------------------
      1          8           0        0.037579    1.387435   -0.000000
      2         17           0        0.037579   -0.730538    0.000000
      3          1           0       -0.939472    1.319672   -0.000000
 ---------------------------------------------------------------------
 Rotational constants (GHZ):         556.7057345           9.8775923           9.7053902
 Standard basis: SVP (5D, 7F)
 There are    29 symmetry adapted cartesian basis functions of A'  symmetry.
 There are    10 symmetry adapted cartesian basis functions of A"  symmetry.
 There are    27 symmetry adapted basis functions of A'  symmetry.
 There are    10 symmetry adapted basis functions of A"  symmetry.
    37 basis functions,    69 primitive gaussians,    39 cartesian basis functions
    13 alpha electrons       13 beta electrons
       nuclear repulsion energy        42.2632145235 Hartrees.
 NAtoms=    3 NActive=    3 NUniq=    3 SFac= 1.00D+00 NAtFMM=   60 NAOKFM=F Big=F
 Integral buffers will be    131072 words long.
 Raffenetti 2 integral format.
 Two-electron integral symmetry is turned on.
 Nuclear repulsion after empirical dispersion term =       42.2615819275 Hartrees.
 One-electron integrals computed using PRISM.
 NBasis=    37 RedAO= T EigKep=  5.01D-02  NBF=    27    10
 NBsUse=    37 1.00D-06 EigRej= -1.00D+00 NBFU=    27    10
 Initial guess from the checkpoint file:  "/tmp/Gau-32377.chk"
 B after Tr=    -0.000000    0.000000   -0.000000
         Rot=    1.000000   -0.000000    0.000000   -0.000000 Ang=   0.00 deg.
 Initial guess orbital symmetries:
       Occupied  (A') (A') (A') (A') (A') (A") (A') (A') (A') (A')
                 (A") (A') (A")
       Virtual   (A') (A') (A') (A') (A') (A") (A') (A') (A") (A')
                 (A") (A') (A') (A") (A') (A') (A") (A') (A') (A")
                 (A') (A') (A") (A')
 Keep R1 ints in memory in symmetry-blocked form, NReq=7153137.
 Requested convergence on RMS density matrix=1.00D-08 within 128 cycles.
 Requested convergence on MAX density matrix=1.00D-06.
 Requested convergence on             energy=1.00D-06.
 No special actions if energy rises.
 SCF Done:  E(RB3LYP) =  -535.725845498     A.U. after    1 cycles
            NFock=  1  Conv=0.72D-09     -V/T= 2.0032
 Calling FoFJK, ICntrl=      2127 FMM=F ISym2X=1 I1Cent= 0 IOpClX= 0 NMat=1 NMatS=1 NMatT=0.
 ***** Axes restored to original set *****
 -------------------------------------------------------------------
 Center     Atomic                   Forces (Hartrees/Bohr)
 Number     Number              X              Y              Z
 -------------------------------------------------------------------
      1        8          -0.005079227    0.062945195    0.030357218
      2       17           0.004520114   -0.055478126   -0.026769912
      3        1           0.000559113   -0.007467068   -0.003587306
 -------------------------------------------------------------------
 Cartesian Forces:  Max     0.062945195 RMS     0.031257492

 GradGradGradGradGradGradGradGradGradGradGradGradGradGradGradGradGradGrad
 Berny optimization.
 Internal  Forces:  Max     0.061647463 RMS     0.036667155
 Search for a saddle point.
 Step number 100 out of a maximum of  100
 All quantities printed in internal units (Hartrees-Bohrs-Radians)
 Swapping is turned off.
 Update second derivatives using D2CorX and points  100
 The second derivative matrix:
                          R1        R2        A1
           R1           0.01783
           R2          -0.00920   0.49144
           A1           0.02852  -0.00145   0.12600
 ITU=  0  0  0  0
     Eigenvalues ---    0.01062   0.13302   0.49163
 Eigenvectors required to have negative eigenvalues:
                          R1        A1        R2
   1                   -0.97068   0.23970  -0.01785
 RFO step:  Lambda0=6.904025153D-02 Lambda= 0.00000000D+00.
 Linear search not attempted -- option 19 set.
 Iteration  1 RMS(Cart)=  0.00000001 RMS(Int)=  0.00000000
 ClnCor:  largest displacement from symmetrization is 1.93D-15 for atom     1.
 Variable       Old X    -DE/DX   Delta X   Delta X   Delta X     New X
                                 (Linear)    (Quad)   (Total)
    R1        4.00239  -0.06165   0.00000   0.00000   0.00000   4.00239
    R2        1.85079  -0.00113   0.00000  -0.00000  -0.00000   1.85079
    A1        1.50155   0.01522   0.00000   0.00000   0.00000   1.50155
         Item               Value     Threshold  Converged?
 Maximum Force            0.061647     0.000450     NO 
 RMS     Force            0.036667     0.000300     NO 
 Maximum Displacement     0.000000     0.001800     YES
 RMS     Displacement     0.000000     0.001200     YES
 Predicted change in Energy= 6.856565D-10
 Optimization stopped.
    -- Number of steps exceeded,  NStep= 100
    -- Flag reset to prevent archiving.
                           ----------------------------
                           ! Non-Optimized Parameters !
                           ! (Angstroms and Degrees)  !
 --------------------------                            --------------------------
 ! Name  Definition              Value          Derivative Info.                !
 --------------------------------------------------------------------------------
 ! R1    R(1,2)                  2.118          -DE/DX =   -0.0616              !
 ! R2    R(1,3)                  0.9794         -DE/DX =   -0.0011              !
 ! A1    A(2,1,3)               86.0326         -DE/DX =    0.0152              !
 --------------------------------------------------------------------------------
 GradGradGradGradGradGradGradGradGradGradGradGradGradGradGradGradGradGrad

                          Input orientation:                          
 ---------------------------------------------------------------------
 Center     Atomic      Atomic             Coordinates (Angstroms)
 Number     Number       Type             X           Y           Z
 ---------------------------------------------------------------------
      1          8           0       -2.068094    0.060306   -1.494169
      2         17           0       -2.347656    1.934939   -0.548968
      3          1           0       -1.147925    0.354929   -1.654501
 ---------------------------------------------------------------------
                    Distance matrix (angstroms):
                    1          2          3
     1  O    0.000000
     2  Cl   2.117973   0.000000
     3  H    0.979398   2.271121   0.000000
 Stoichiometry    ClHO
 Framework group  CS[SG(ClHO)]
 Deg. of freedom     3
 Full point group                 CS      NOp   2
 Largest Abelian subgroup         CS      NOp   2
 Largest concise Abelian subgroup C1      NOp   1
                         Standard orientation:                         
 ---------------------------------------------------------------------
 Center     Atomic      Atomic             Coordinates (Angstroms)
 Number     Number       Type             X           Y           Z
 ---------------------------------------------------------------------
      1          8           0        0.037579    1.387435   -0.000000
      2         17           0        0.037579   -0.730538    0.000000
      3          1           0       -0.939472    1.319672   -0.000000
 ---------------------------------------------------------------------
 Rotational constants (GHZ):         556.7057345           9.8775923           9.7053902

 **********************************************************************

            Population analysis using the SCF density.

 **********************************************************************

 Orbital symmetries:
       Occupied  (A') (A') (A') (A') (A') (A") (A') (A') (A') (A')
                 (A") (A') (A")
       Virtual   (A') (A') (A') (A') (A') (A") (A') (A') (A") (A')
                 (A") (A') (A') (A") (A') (A') (A") (A') (A') (A")
                 (A') (A') (A") (A')
 The electronic state is 1-A'.
 Alpha  occ. eigenvalues -- -101.54942 -19.22323  -9.49782  -7.27117  -7.25542
 Alpha  occ. eigenvalues --   -7.25515  -0.99608  -0.80465  -0.48185  -0.41188
 Alpha  occ. eigenvalues --   -0.36468  -0.33112  -0.31175
 Alpha virt. eigenvalues --   -0.18272   0.05333   0.46690   0.56347   0.66699
 Alpha virt. eigenvalues --    0.70730   0.70986   0.76180   0.76274   0.82695
 Alpha virt. eigenvalues --    0.82960   0.89889   0.95337   0.97035   1.01549
 Alpha virt. eigenvalues --    1.38519   1.39596   1.44454   2.13832   2.58265
 Alpha virt. eigenvalues --    2.66458   2.90278   2.92036   3.63343
          Condensed to atoms (all electrons):
               1          2          3
     1  O    7.784680   0.147936   0.282675
     2  Cl   0.147936  16.854035  -0.005047
     3  H    0.282675  -0.005047   0.510157
 Mulliken charges:
               1
     1  O   -0.215291
     2  Cl   0.003077
     3  H    0.212214
 Sum of Mulliken charges =   0.00000
 Mulliken charges with hydrogens summed into heavy atoms:
               1
     1  O   -0.003077
     2  Cl   0.003077
 Electronic spatial extent (au):  <R**2>=            135.3956
 Charge=              0.0000 electrons
 Dipole moment (field-independent basis, Debye):
    X=             -1.6671    Y=             -0.0973    Z=              0.0000  Tot=              1.6700
 Quadrupole moment (field-independent basis, Debye-Ang):
   XX=            -16.6500   YY=            -16.3316   ZZ=            -18.8099
   XY=             -2.4135   XZ=              0.0000   YZ=              0.0000
 Traceless Quadrupole moment (field-independent basis, Debye-Ang):
   XX=              0.6138   YY=              0.9323   ZZ=             -1.5461
   XY=             -2.4135   XZ=              0.0000   YZ=              0.0000
 Octapole moment (field-independent basis, Debye-Ang**2):
  XXX=             -2.2206  YYY=              0.3533  ZZZ=              0.0000  XYY=             -3.5297
  XXY=              3.3883  XXZ=              0.0000  XZZ=             -0.2413  YZZ=              0.5138
  YYZ=              0.0000  XYZ=              0.0000
 Hexadecapole moment (field-independent basis, Debye-Ang**3):
 XXXX=            -17.1045 YYYY=           -108.4222 ZZZZ=            -16.8684 XXXY=             -0.2945
 XXXZ=             -0.0000 YYYX=             -2.7664 YYYZ=              0.0000 ZZZX=             -0.0000
 ZZZY=              0.0000 XXYY=            -20.2062 XXZZ=             -5.9793 YYZZ=            -23.7020
 XXYZ=              0.0000 YYXZ=              0.0000 ZZXY=              0.5595
 N-N= 4.226158192750D+01 E-N=-1.357209071818D+03  KE= 5.340373823746D+02
 Symmetry A'   KE= 4.832848789603D+02
 Symmetry A"   KE= 5.075250341424D+01



 IN THIS SHORT LIFE

 THAT ONLY LASTS AN HOUR

 HOW MUCH, HOW LITTLE, IS WITHIN OUR POWER....


 EMILY DICKINSON BOLTS OF MELODY NO. 521
 Error termination request processed by link 9999.
 Error termination via Lnk1e in /share/apps/g16.a03/g16/l9999.exe at Thu Mar  6 16:39:01 2025.
 Job cpu time:       0 days  0 hours 12 minutes 43.7 seconds.
 Elapsed time:       0 days  0 hours  1 minutes 43.9 seconds.
 File lengths (MBytes):  RWF=      6 Int=      0 D2E=      0 Chk=      1 Scr=      1
