 Entering Gaussian System, Link 0=g16
 Input=ts.gjf
 Output=ts.log
 Initial command:
 /share/apps/g16.a03/g16/l1.exe "/tmp/Gau-13932.inp" -scrdir="/tmp/"
 Entering Link 1 = /share/apps/g16.a03/g16/l1.exe PID=     13934.
  
 Copyright (c) 1988,1990,1992,1993,1995,1998,2003,2009,2016,
            Gaussian, Inc.  All Rights Reserved.
  
 This is part of the Gaussian(R) 16 program.  It is based on
 the Gaussian(R) 09 system (copyright 2009, Gaussian, Inc.),
 the Gaussian(R) 03 system (copyright 2003, Gaussian, Inc.),
 the Gaussian(R) 98 system (copyright 1998, Gaussian, Inc.),
 the Gaussian(R) 94 system (copyright 1995, Gaussian, Inc.),
 the Gaussian 92(TM) system (copyright 1992, Gaussian, Inc.),
 the Gaussian 90(TM) system (copyright 1990, Gaussian, Inc.),
 the Gaussian 88(TM) system (copyright 1988, Gaussian, Inc.),
 the Gaussian 86(TM) system (copyright 1986, Carnegie Mellon
 University), and the Gaussian 82(TM) system (copyright 1983,
 Carnegie Mellon University). Gaussian is a federally registered
 trademark of Gaussian, Inc.
  
 This software contains proprietary and confidential information,
 including trade secrets, belonging to Gaussian, Inc.
  
 This software is provided under written license and may be
 used, copied, transmitted, or stored only in accord with that
 written license.
  
 The following legend is applicable only to US Government
 contracts under FAR:
  
                    RESTRICTED RIGHTS LEGEND
  
 Use, reproduction and disclosure by the US Government is
 subject to restrictions as set forth in subparagraphs (a)
 and (c) of the Commercial Computer Software - Restricted
 Rights clause in FAR 52.227-19.
  
 Gaussian, Inc.
 340 Quinnipiac St., Bldg. 40, Wallingford CT 06492
  
  
 ---------------------------------------------------------------
 Warning -- This program may not be used in any manner that
 competes with the business of Gaussian, Inc. or will provide
 assistance to any competitor of Gaussian, Inc.  The licensee
 of this program is prohibited from giving any competitor of
 Gaussian, Inc. access to this program.  By using this program,
 the user acknowledges that Gaussian, Inc. is engaged in the
 business of creating and licensing software in the field of
 computational chemistry and represents and warrants to the
 licensee that it is not a competitor of Gaussian, Inc. and that
 it will not use this program in any manner prohibited above.
 ---------------------------------------------------------------
  

 Cite this work as:
 Gaussian 16, Revision A.03,
 M. J. Frisch, G. W. Trucks, H. B. Schlegel, G. E. Scuseria, 
 M. A. Robb, J. R. Cheeseman, G. Scalmani, V. Barone, 
 G. A. Petersson, H. Nakatsuji, X. Li, M. Caricato, A. V. Marenich, 
 J. Bloino, B. G. Janesko, R. Gomperts, B. Mennucci, H. P. Hratchian, 
 J. V. Ortiz, A. F. Izmaylov, J. L. Sonnenberg, D. Williams-Young, 
 F. Ding, F. Lipparini, F. Egidi, J. Goings, B. Peng, A. Petrone, 
 T. Henderson, D. Ranasinghe, V. G. Zakrzewski, J. Gao, N. Rega, 
 G. Zheng, W. Liang, M. Hada, M. Ehara, K. Toyota, R. Fukuda, 
 J. Hasegawa, M. Ishida, T. Nakajima, Y. Honda, O. Kitao, H. Nakai, 
 T. Vreven, K. Throssell, J. A. Montgomery, Jr., J. E. Peralta, 
 F. Ogliaro, M. J. Bearpark, J. J. Heyd, E. N. Brothers, K. N. Kudin, 
 V. N. Staroverov, T. A. Keith, R. Kobayashi, J. Normand, 
 K. Raghavachari, A. P. Rendell, J. C. Burant, S. S. Iyengar, 
 J. Tomasi, M. Cossi, J. M. Millam, M. Klene, C. Adamo, R. Cammi, 
 J. W. Ochterski, R. L. Martin, K. Morokuma, O. Farkas, 
 J. B. Foresman, and D. J. Fox, Gaussian, Inc., Wallingford CT, 2016.
 
 ******************************************
 Gaussian 16:  EM64L-G16RevA.03 25-Dec-2016
                 6-Mar-2025 
 ******************************************
 %nproc=8
 Will use up to    8 processors via shared memory.
 %mem=4000MB
 --------------------------------------------------------------------
 #opt=(noeigen,calcfc,ts,recalc=5,maxcyc=200) freq B3LYP/SVP em=GD3BJ
 --------------------------------------------------------------------
 1/5=1,6=200,10=4,11=1,18=20,26=3,38=1,71=5/1,3;
 2/9=110,12=2,17=6,18=5,40=1/2;
 3/5=18,7=101,11=2,25=1,30=1,71=2,74=-5,124=41,140=1/1,2,3;
 4//1;
 5/5=2,38=5/2;
 8/6=4,10=90,11=11/1;
 11/6=1,8=1,9=11,15=111,16=1/1,2,10;
 10/6=1,13=1/2;
 6/7=2,8=2,9=2,10=2,28=1/1;
 7/10=1,18=20,25=1/1,2,3,16;
 1/5=1,6=200,10=4,11=1,18=20,26=3,71=5/3(2);
 2/9=110/2;
 99//99;
 2/9=110/2;
 3/5=18,7=101,11=2,25=1,30=1,71=1,74=-5,124=41/1,2,3;
 4/5=5,16=3,69=1/1;
 5/5=2,38=5/2;
 7//1,2,3,16;
 1/5=1,6=200,11=1,18=20,26=3,71=5/3(-5);
 2/9=110/2;
 6/7=2,8=2,9=2,10=2,19=2,28=1/1;
 99/9=1/99;
 -----------
 ts-1799.gjf
 -----------
 Symbolic Z-matrix:
 Charge =  0 Multiplicity = 1
 O                     3.41605  -4.56865   1.14691 
 Cl                    2.8555   -5.06127   2.59204 
 H                     3.98056  -5.24175   0.74153 
 

 GradGradGradGradGradGradGradGradGradGradGradGradGradGradGradGradGradGrad
 Berny optimization.
 Initialization pass.
                           ----------------------------
                           !    Initial Parameters    !
                           ! (Angstroms and Degrees)  !
 --------------------------                            --------------------------
 ! Name  Definition              Value          Derivative Info.                !
 --------------------------------------------------------------------------------
 ! R1    R(1,2)                  1.6264         calculate D2E/DX2 analytically  !
 ! R2    R(1,3)                  0.9675         calculate D2E/DX2 analytically  !
 ! A1    A(2,1,3)              111.2633         calculate D2E/DX2 analytically  !
 --------------------------------------------------------------------------------
 Trust Radius=3.00D-01 FncErr=1.00D-07 GrdErr=1.00D-06 EigMax=2.50D+02 EigMin=1.00D-04
 Number of steps in this run=    100 maximum allowed number of steps=    100.
 Search for a saddle point of order  1.
 GradGradGradGradGradGradGradGradGradGradGradGradGradGradGradGradGradGrad

                          Input orientation:                          
 ---------------------------------------------------------------------
 Center     Atomic      Atomic             Coordinates (Angstroms)
 Number     Number       Type             X           Y           Z
 ---------------------------------------------------------------------
      1          8           0        3.416048   -4.568648    1.146906
      2         17           0        2.855503   -5.061266    2.592039
      3          1           0        3.980564   -5.241754    0.741533
 ---------------------------------------------------------------------
                    Distance matrix (angstroms):
                    1          2          3
     1  O    0.000000
     2  Cl   1.626436   0.000000
     3  H    0.967511   2.173180   0.000000
 Stoichiometry    ClHO
 Framework group  CS[SG(ClHO)]
 Deg. of freedom     3
 Full point group                 CS      NOp   2
 Largest Abelian subgroup         CS      NOp   2
 Largest concise Abelian subgroup C1      NOp   1
                         Standard orientation:                         
 ---------------------------------------------------------------------
 Center     Atomic      Atomic             Coordinates (Angstroms)
 Number     Number       Type             X           Y           Z
 ---------------------------------------------------------------------
      1          8           0        0.034679    1.049944   -0.000000
      2         17           0        0.034679   -0.576492   -0.000000
      3          1           0       -0.866967    1.400816    0.000000
 ---------------------------------------------------------------------
 Rotational constants (GHZ):         676.3096973          16.1905054          15.8119748
 Standard basis: SVP (5D, 7F)
 There are    29 symmetry adapted cartesian basis functions of A'  symmetry.
 There are    10 symmetry adapted cartesian basis functions of A"  symmetry.
 There are    27 symmetry adapted basis functions of A'  symmetry.
 There are    10 symmetry adapted basis functions of A"  symmetry.
    37 basis functions,    69 primitive gaussians,    39 cartesian basis functions
    13 alpha electrons       13 beta electrons
       nuclear repulsion energy        52.7641075611 Hartrees.
 NAtoms=    3 NActive=    3 NUniq=    3 SFac= 1.00D+00 NAtFMM=   60 NAOKFM=F Big=F
 Integral buffers will be    131072 words long.
 Raffenetti 2 integral format.
 Two-electron integral symmetry is turned on.
 Nuclear repulsion after empirical dispersion term =       52.7624923217 Hartrees.
 One-electron integrals computed using PRISM.
 NBasis=    37 RedAO= T EigKep=  3.07D-02  NBF=    27    10
 NBsUse=    37 1.00D-06 EigRej= -1.00D+00 NBFU=    27    10
 ExpMin= 1.22D-01 ExpMax= 1.04D+04 ExpMxC= 1.57D+03 IAcc=3 IRadAn=         5 AccDes= 0.00D+00
 Harris functional with IExCor=  402 and IRadAn=       5 diagonalized for initial guess.
 HarFok:  IExCor=  402 AccDes= 0.00D+00 IRadAn=         5 IDoV= 1 UseB2=F ITyADJ=14
 ICtDFT=  3500011 ScaDFX=  1.000000  1.000000  1.000000  1.000000
 FoFCou: FMM=F IPFlag=           0 FMFlag=      100000 FMFlg1=           0
         NFxFlg=           0 DoJE=T BraDBF=F KetDBF=T FulRan=T
         wScrn=  0.000000 ICntrl=       500 IOpCl=  0 I1Cent=   200000004 NGrid=           0
         NMat0=    1 NMatS0=      1 NMatT0=    0 NMatD0=    1 NMtDS0=    0 NMtDT0=    0
 Petite list used in FoFCou.
 Initial guess orbital symmetries:
       Occupied  (A') (A') (A') (A') (A') (A") (A') (A') (A') (A')
                 (A") (A') (A")
       Virtual   (A') (A') (A') (A') (A') (A") (A') (A') (A") (A')
                 (A") (A') (A") (A') (A') (A') (A") (A') (A') (A")
                 (A') (A") (A') (A')
 The electronic state of the initial guess is 1-A'.
 Keep R1 ints in memory in symmetry-blocked form, NReq=7153137.
 Requested convergence on RMS density matrix=1.00D-08 within 128 cycles.
 Requested convergence on MAX density matrix=1.00D-06.
 Requested convergence on             energy=1.00D-06.
 No special actions if energy rises.
 Integral accuracy reduced to 1.0D-05 until final iterations.
 Initial convergence to 1.0D-05 achieved.  Increase integral accuracy.
 SCF Done:  E(RB3LYP) =  -535.755071176     A.U. after   11 cycles
            NFock= 11  Conv=0.82D-08     -V/T= 2.0023
 DoSCS=F DFT=T ScalE2(SS,OS)=  1.000000  1.000000
 Range of M.O.s used for correlation:     1    37
 NBasis=    37 NAE=    13 NBE=    13 NFC=     0 NFV=     0
 NROrb=     37 NOA=    13 NOB=    13 NVA=    24 NVB=    24
 Symmetrizing basis deriv contribution to polar:
 IMax=3 JMax=2 DiffMx= 0.00D+00
 G2DrvN: will do     4 centers at a time, making    1 passes.
 Calling FoFCou, ICntrl=  3107 FMM=F I1Cent=   0 AccDes= 0.00D+00.
 End of G2Drv F.D. properties file   721 does not exist.
 End of G2Drv F.D. properties file   722 does not exist.
 End of G2Drv F.D. properties file   788 does not exist.
          IDoAtm=111
          Differentiating once with respect to nuclear coordinates.
 Keep R1 ints in memory in symmetry-blocked form, NReq=7127942.
          There are    12 degrees of freedom in the 1st order CPHF.  IDoFFX=6 NUNeed=     0.
      6 vectors produced by pass  0 Test12= 2.60D-15 8.33D-09 XBig12= 7.97D-02 1.92D-01.
 AX will form     6 AO Fock derivatives at one time.
      6 vectors produced by pass  1 Test12= 2.60D-15 8.33D-09 XBig12= 1.32D-02 5.21D-02.
      6 vectors produced by pass  2 Test12= 2.60D-15 8.33D-09 XBig12= 4.63D-04 6.36D-03.
      6 vectors produced by pass  3 Test12= 2.60D-15 8.33D-09 XBig12= 7.24D-06 8.38D-04.
      6 vectors produced by pass  4 Test12= 2.60D-15 8.33D-09 XBig12= 6.37D-08 7.36D-05.
      6 vectors produced by pass  5 Test12= 2.60D-15 8.33D-09 XBig12= 4.92D-10 7.49D-06.
      3 vectors produced by pass  6 Test12= 2.60D-15 8.33D-09 XBig12= 9.53D-13 3.49D-07.
 InvSVY:  IOpt=1 It=  1 EMax= 2.22D-16
 Solved reduced A of dimension    39 with     6 vectors.
 End of Minotr F.D. properties file   721 does not exist.
 End of Minotr F.D. properties file   722 does not exist.
 End of Minotr F.D. properties file   788 does not exist.

 **********************************************************************

            Population analysis using the SCF density.

 **********************************************************************

 Orbital symmetries:
       Occupied  (A') (A') (A') (A') (A') (A") (A') (A') (A') (A')
                 (A") (A') (A")
       Virtual   (A') (A') (A') (A') (A') (A") (A') (A') (A") (A')
                 (A") (A') (A") (A') (A') (A') (A") (A') (A') (A")
                 (A') (A") (A') (A')
 The electronic state is 1-A'.
 Alpha  occ. eigenvalues -- -101.53656 -19.18478  -9.48988  -7.26322  -7.24676
 Alpha  occ. eigenvalues --   -7.24633  -1.06887  -0.78693  -0.53925  -0.43341
 Alpha  occ. eigenvalues --   -0.41155  -0.30121  -0.26616
 Alpha virt. eigenvalues --   -0.03642   0.07131   0.44458   0.54221   0.70190
 Alpha virt. eigenvalues --    0.70396   0.73751   0.76140   0.76213   0.84472
 Alpha virt. eigenvalues --    0.85071   0.95544   0.99631   1.07133   1.15028
 Alpha virt. eigenvalues --    1.27422   1.43306   1.61321   2.17246   2.64163
 Alpha virt. eigenvalues --    2.85429   2.91969   3.03125   3.63763
          Condensed to atoms (all electrons):
               1          2          3
     1  O    7.921146   0.091010   0.315942
     2  Cl   0.091010  16.818440  -0.027205
     3  H    0.315942  -0.027205   0.500919
 Mulliken charges:
               1
     1  O   -0.328099
     2  Cl   0.117755
     3  H    0.210344
 Sum of Mulliken charges =  -0.00000
 Mulliken charges with hydrogens summed into heavy atoms:
               1
     1  O   -0.117755
     2  Cl   0.117755
 APT charges:
               1
     1  O   -0.597300
     2  Cl   0.122648
     3  H    0.474652
 Sum of APT charges =  -0.00000
 APT charges with hydrogens summed into heavy atoms:
               1
     1  O   -0.122648
     2  Cl   0.122648
 Electronic spatial extent (au):  <R**2>=             99.4189
 Charge=             -0.0000 electrons
 Dipole moment (field-independent basis, Debye):
    X=             -1.6537    Y=              0.2587    Z=              0.0000  Tot=              1.6738
 Quadrupole moment (field-independent basis, Debye-Ang):
   XX=            -16.6278   YY=            -15.9248   ZZ=            -18.4924
   XY=             -2.7006   XZ=             -0.0000   YZ=              0.0000
 Traceless Quadrupole moment (field-independent basis, Debye-Ang):
   XX=              0.3872   YY=              1.0902   ZZ=             -1.4774
   XY=             -2.7006   XZ=             -0.0000   YZ=              0.0000
 Octapole moment (field-independent basis, Debye-Ang**2):
  XXX=             -1.9829  YYY=              1.7915  ZZZ=             -0.0000  XYY=             -3.8281
  XXY=              3.1509  XXZ=             -0.0000  XZZ=             -0.2461  YZZ=              0.7478
  YYZ=             -0.0000  XYZ=             -0.0000
 Hexadecapole moment (field-independent basis, Debye-Ang**3):
 XXXX=            -16.7766 YYYY=            -69.7561 ZZZZ=            -16.5029 XXXY=             -0.3887
 XXXZ=              0.0000 YYYX=             -4.0703 YYYZ=              0.0000 ZZZX=              0.0000
 ZZZY=              0.0000 XXYY=            -13.6251 XXZZ=             -5.7820 YYZZ=            -16.7502
 XXYZ=              0.0000 YYXZ=             -0.0000 ZZXY=              0.4873
 N-N= 5.276249232175D+01 E-N=-1.378647197766D+03  KE= 5.345361939471D+02
 Symmetry A'   KE= 4.837667767387D+02
 Symmetry A"   KE= 5.076941720833D+01
  Exact polarizability:   0.000   0.000   0.000   0.000   0.000   0.000
 Approx polarizability:  13.917  -1.883  29.424  -0.000  -0.000  10.303
 Calling FoFJK, ICntrl=    100147 FMM=F ISym2X=1 I1Cent= 0 IOpClX= 0 NMat=1 NMatS=1 NMatT=0.
 ***** Axes restored to original set *****
 -------------------------------------------------------------------
 Center     Atomic                   Forces (Hartrees/Bohr)
 Number     Number              X              Y              Z
 -------------------------------------------------------------------
      1        8           0.011863535    0.026881293   -0.045362763
      2       17          -0.012197566   -0.018629004    0.038549440
      3        1           0.000334031   -0.008252289    0.006813324
 -------------------------------------------------------------------
 Cartesian Forces:  Max     0.045362763 RMS     0.023611769
 FormGI is forming the generalized inverse of G from B-inverse, IUseBI=4.

 GradGradGradGradGradGradGradGradGradGradGradGradGradGradGradGradGradGrad
 Berny optimization.
 Internal  Forces:  Max     0.044098488 RMS     0.027722581
 Search for a saddle point.
 Step number   1 out of a maximum of  100
 All quantities printed in internal units (Hartrees-Bohrs-Radians)
 Swapping is turned off.
 Second derivative matrix not updated -- analytic derivatives used.
 The second derivative matrix:
                          R1        R2        A1
           R1           0.36934
           R2          -0.00962   0.51781
           A1           0.05820  -0.00065   0.18199
 ITU=  0
     Eigenvalues ---    0.16537   0.38528   0.51850
 Eigenvectors required to have negative eigenvalues:
                          A1        R1        R2
   1                   -0.96153   0.27463   0.00571
 RFO step:  Lambda0=1.706955737D-01 Lambda=-3.59071744D-03.
 Linear search not attempted -- option 19 set.
 Iteration  1 RMS(Cart)=  0.09792583 RMS(Int)=  0.00369019
 Iteration  2 RMS(Cart)=  0.00275618 RMS(Int)=  0.00000200
 Iteration  3 RMS(Cart)=  0.00000251 RMS(Int)=  0.00000000
 Iteration  4 RMS(Cart)=  0.00000000 RMS(Int)=  0.00000000
 ClnCor:  largest displacement from symmetrization is 1.90D-15 for atom     3.
 Variable       Old X    -DE/DX   Delta X   Delta X   Delta X     New X
                                 (Linear)    (Quad)   (Total)
    R1        3.07352   0.04410   0.00000   0.06573   0.06573   3.13925
    R2        1.82833   0.00308   0.00000   0.00676   0.00676   1.83509
    A1        1.94191  -0.01875   0.00000   0.11875   0.11875   2.06066
         Item               Value     Threshold  Converged?
 Maximum Force            0.044098     0.000450     NO 
 RMS     Force            0.027723     0.000300     NO 
 Maximum Displacement     0.101116     0.001800     NO 
 RMS     Displacement     0.097318     0.001200     NO 
 Predicted change in Energy= 1.849105D-03
 GradGradGradGradGradGradGradGradGradGradGradGradGradGradGradGradGradGrad

                          Input orientation:                          
 ---------------------------------------------------------------------
 Center     Atomic      Atomic             Coordinates (Angstroms)
 Number     Number       Type             X           Y           Z
 ---------------------------------------------------------------------
      1          8           0        3.426455   -4.598908    1.155463
      2         17           0        2.823266   -5.047105    2.636990
      3          1           0        4.002393   -5.225655    0.688025
 ---------------------------------------------------------------------
                    Distance matrix (angstroms):
                    1          2          3
     1  O    0.000000
     2  Cl   1.661217   0.000000
     3  H    0.971090   2.284882   0.000000
 Stoichiometry    ClHO
 Framework group  CS[SG(ClHO)]
 Deg. of freedom     3
 Full point group                 CS      NOp   2
 Largest Abelian subgroup         CS      NOp   2
 Largest concise Abelian subgroup C1      NOp   1
                         Standard orientation:                         
 ---------------------------------------------------------------------
 Center     Atomic      Atomic             Coordinates (Angstroms)
 Number     Number       Type             X           Y           Z
 ---------------------------------------------------------------------
      1          8           0        0.032957    1.068607    0.000000
      2         17           0        0.032957   -0.592610   -0.000000
      3          1           0       -0.823930    1.525510    0.000000
 ---------------------------------------------------------------------
 Rotational constants (GHZ):         755.6993962          15.3781175          15.0714213
 Standard basis: SVP (5D, 7F)
 There are    29 symmetry adapted cartesian basis functions of A'  symmetry.
 There are    10 symmetry adapted cartesian basis functions of A"  symmetry.
 There are    27 symmetry adapted basis functions of A'  symmetry.
 There are    10 symmetry adapted basis functions of A"  symmetry.
    37 basis functions,    69 primitive gaussians,    39 cartesian basis functions
    13 alpha electrons       13 beta electrons
       nuclear repulsion energy        51.6191464819 Hartrees.
 NAtoms=    3 NActive=    3 NUniq=    3 SFac= 1.00D+00 NAtFMM=   60 NAOKFM=F Big=F
 Integral buffers will be    131072 words long.
 Raffenetti 2 integral format.
 Two-electron integral symmetry is turned on.
 Nuclear repulsion after empirical dispersion term =       51.6175413274 Hartrees.
 One-electron integrals computed using PRISM.
 NBasis=    37 RedAO= T EigKep=  3.39D-02  NBF=    27    10
 NBsUse=    37 1.00D-06 EigRej= -1.00D+00 NBFU=    27    10
 Initial guess from the checkpoint file:  "/tmp/Gau-13934.chk"
 B after Tr=     0.000000    0.000000   -0.000000
         Rot=    0.999988   -0.000000    0.000000    0.004957 Ang=   0.57 deg.
 Initial guess orbital symmetries:
       Occupied  (A') (A') (A') (A') (A') (A") (A') (A') (A') (A')
                 (A") (A') (A")
       Virtual   (A') (A') (A') (A') (A') (A") (A') (A') (A") (A')
                 (A") (A') (A") (A') (A') (A') (A") (A') (A') (A")
                 (A') (A") (A') (A')
 ExpMin= 1.22D-01 ExpMax= 1.04D+04 ExpMxC= 1.57D+03 IAcc=2 IRadAn=         4 AccDes= 0.00D+00
 Harris functional with IExCor=  402 and IRadAn=       4 diagonalized for initial guess.
 HarFok:  IExCor=  402 AccDes= 0.00D+00 IRadAn=         4 IDoV= 1 UseB2=F ITyADJ=14
 ICtDFT=  3500011 ScaDFX=  1.000000  1.000000  1.000000  1.000000
 FoFCou: FMM=F IPFlag=           0 FMFlag=      100000 FMFlg1=           0
         NFxFlg=           0 DoJE=T BraDBF=F KetDBF=T FulRan=T
         wScrn=  0.000000 ICntrl=       500 IOpCl=  0 I1Cent=   200000004 NGrid=           0
         NMat0=    1 NMatS0=      1 NMatT0=    0 NMatD0=    1 NMtDS0=    0 NMtDT0=    0
 Petite list used in FoFCou.
 Keep R1 ints in memory in symmetry-blocked form, NReq=7153137.
 Requested convergence on RMS density matrix=1.00D-08 within 128 cycles.
 Requested convergence on MAX density matrix=1.00D-06.
 Requested convergence on             energy=1.00D-06.
 No special actions if energy rises.
 Integral accuracy reduced to 1.0D-05 until final iterations.
 Initial convergence to 1.0D-05 achieved.  Increase integral accuracy.
 SCF Done:  E(RB3LYP) =  -535.753390318     A.U. after   11 cycles
            NFock= 11  Conv=0.48D-08     -V/T= 2.0025
 Calling FoFJK, ICntrl=      2127 FMM=F ISym2X=1 I1Cent= 0 IOpClX= 0 NMat=1 NMatS=1 NMatT=0.
 ***** Axes restored to original set *****
 -------------------------------------------------------------------
 Center     Atomic                   Forces (Hartrees/Bohr)
 Number     Number              X              Y              Z
 -------------------------------------------------------------------
      1        8           0.001618310    0.031153092   -0.030871591
      2       17           0.000400848   -0.016136884    0.013774459
      3        1          -0.002019158   -0.015016208    0.017097132
 -------------------------------------------------------------------
 Cartesian Forces:  Max     0.031153092 RMS     0.017945473

 GradGradGradGradGradGradGradGradGradGradGradGradGradGradGradGradGradGrad
 Berny optimization.
 FormGI is forming the generalized inverse of G from B-inverse, IUseBI=4.
 Internal  Forces:  Max     0.041918341 RMS     0.026007890
 Search for a saddle point.
 Step number   2 out of a maximum of  100
 All quantities printed in internal units (Hartrees-Bohrs-Radians)
 Swapping is turned off.
 Update second derivatives using D2CorX and points    1    2
 The second derivative matrix:
                          R1        R2        A1
           R1           0.34596
           R2          -0.00961   0.51783
           A1           0.04153  -0.00045   0.17217
 ITU=  0  0
     Eigenvalues ---    0.16274   0.35482   0.51839
 Eigenvectors required to have negative eigenvalues:
                          A1        R1        R2
   1                   -0.97519   0.22130   0.00475
 RFO step:  Lambda0=1.741318909D-01 Lambda=-1.30445925D-04.
 Linear search not attempted -- option 19 set.
 Iteration  1 RMS(Cart)=  0.01897306 RMS(Int)=  0.00013724
 Iteration  2 RMS(Cart)=  0.00010504 RMS(Int)=  0.00000000
 Iteration  3 RMS(Cart)=  0.00000000 RMS(Int)=  0.00000000
 ClnCor:  largest displacement from symmetrization is 2.51D-15 for atom     1.
 Variable       Old X    -DE/DX   Delta X   Delta X   Delta X     New X
                                 (Linear)    (Quad)   (Total)
    R1        3.13925   0.01649   0.00000   0.01444   0.01444   3.15369
    R2        1.83509   0.00026   0.00000   0.00036   0.00036   1.83545
    A1        2.06066  -0.04192   0.00000   0.02293   0.02293   2.08359
         Item               Value     Threshold  Converged?
 Maximum Force            0.041918     0.000450     NO 
 RMS     Force            0.026008     0.000300     NO 
 Maximum Displacement     0.019110     0.001800     NO 
 RMS     Displacement     0.018945     0.001200     NO 
 Predicted change in Energy= 8.180592D-04
 GradGradGradGradGradGradGradGradGradGradGradGradGradGradGradGradGradGrad

                          Input orientation:                          
 ---------------------------------------------------------------------
 Center     Atomic      Atomic             Coordinates (Angstroms)
 Number     Number       Type             X           Y           Z
 ---------------------------------------------------------------------
      1          8           0        3.428878   -4.605105    1.156694
      2         17           0        2.816948   -5.044409    2.645871
      3          1           0        4.006289   -5.222154    0.677913
 ---------------------------------------------------------------------
                    Distance matrix (angstroms):
                    1          2          3
     1  O    0.000000
     2  Cl   1.668860   0.000000
     3  H    0.971280   2.306293   0.000000
 Stoichiometry    ClHO
 Framework group  CS[SG(ClHO)]
 Deg. of freedom     3
 Full point group                 CS      NOp   2
 Largest Abelian subgroup         CS      NOp   2
 Largest concise Abelian subgroup C1      NOp   1
                         Standard orientation:                         
 ---------------------------------------------------------------------
 Center     Atomic      Atomic             Coordinates (Angstroms)
 Number     Number       Type             X           Y           Z
 ---------------------------------------------------------------------
      1          8           0        0.032552    1.072850    0.000000
      2         17           0        0.032552   -0.596010   -0.000000
      3          1           0       -0.813799    1.549375    0.000000
 ---------------------------------------------------------------------
 Rotational constants (GHZ):         775.9163781          15.2123516          14.9198384
 Standard basis: SVP (5D, 7F)
 There are    29 symmetry adapted cartesian basis functions of A'  symmetry.
 There are    10 symmetry adapted cartesian basis functions of A"  symmetry.
 There are    27 symmetry adapted basis functions of A'  symmetry.
 There are    10 symmetry adapted basis functions of A"  symmetry.
    37 basis functions,    69 primitive gaussians,    39 cartesian basis functions
    13 alpha electrons       13 beta electrons
       nuclear repulsion energy        51.3833363523 Hartrees.
 NAtoms=    3 NActive=    3 NUniq=    3 SFac= 1.00D+00 NAtFMM=   60 NAOKFM=F Big=F
 Integral buffers will be    131072 words long.
 Raffenetti 2 integral format.
 Two-electron integral symmetry is turned on.
 Nuclear repulsion after empirical dispersion term =       51.3817335213 Hartrees.
 One-electron integrals computed using PRISM.
 NBasis=    37 RedAO= T EigKep=  3.46D-02  NBF=    27    10
 NBsUse=    37 1.00D-06 EigRej= -1.00D+00 NBFU=    27    10
 Initial guess from the checkpoint file:  "/tmp/Gau-13934.chk"
 B after Tr=    -0.000000   -0.000000   -0.000000
         Rot=    0.999999    0.000000   -0.000000    0.001001 Ang=   0.11 deg.
 Initial guess orbital symmetries:
       Occupied  (A') (A') (A') (A') (A') (A") (A') (A') (A') (A')
                 (A") (A') (A")
       Virtual   (A') (A') (A') (A') (A') (A") (A') (A') (A") (A')
                 (A") (A') (A") (A') (A') (A') (A") (A') (A') (A")
                 (A') (A") (A') (A')
 Keep R1 ints in memory in symmetry-blocked form, NReq=7153137.
 Requested convergence on RMS density matrix=1.00D-08 within 128 cycles.
 Requested convergence on MAX density matrix=1.00D-06.
 Requested convergence on             energy=1.00D-06.
 No special actions if energy rises.
 SCF Done:  E(RB3LYP) =  -535.752583629     A.U. after    9 cycles
            NFock=  9  Conv=0.17D-08     -V/T= 2.0025
 Calling FoFJK, ICntrl=      2127 FMM=F ISym2X=1 I1Cent= 0 IOpClX= 0 NMat=1 NMatS=1 NMatT=0.
 ***** Axes restored to original set *****
 -------------------------------------------------------------------
 Center     Atomic                   Forces (Hartrees/Bohr)
 Number     Number              X              Y              Z
 -------------------------------------------------------------------
      1        8          -0.000717452    0.032442070   -0.027850759
      2       17           0.002749582   -0.015788595    0.009260094
      3        1          -0.002032130   -0.016653474    0.018590665
 -------------------------------------------------------------------
 Cartesian Forces:  Max     0.032442070 RMS     0.017633104

 GradGradGradGradGradGradGradGradGradGradGradGradGradGradGradGradGradGrad
 Berny optimization.
 FormGI is forming the generalized inverse of G from B-inverse, IUseBI=4.
 Internal  Forces:  Max     0.045960565 RMS     0.027341236
 Search for a saddle point.
 Step number   3 out of a maximum of  100
 All quantities printed in internal units (Hartrees-Bohrs-Radians)
 Swapping is turned off.
 Update second derivatives using D2CorX and points    1    2    3
 The second derivative matrix:
                          R1        R2        A1
           R1           0.31639
           R2          -0.00906   0.51783
           A1           0.02248   0.00003   0.16211
 ITU=  0  0  0
     Eigenvalues ---    0.15890   0.31919   0.51824
 Eigenvectors required to have negative eigenvalues:
                          A1        R1        R2
   1                   -0.98993   0.14149   0.00366
 RFO step:  Lambda0=1.718191837D-01 Lambda=-7.19261050D-05.
 Linear search not attempted -- option 19 set.
 Iteration  1 RMS(Cart)=  0.01464955 RMS(Int)=  0.00007498
 Iteration  2 RMS(Cart)=  0.00005691 RMS(Int)=  0.00000000
 Iteration  3 RMS(Cart)=  0.00000000 RMS(Int)=  0.00000000
 ClnCor:  largest displacement from symmetrization is 2.39D-15 for atom     3.
 Variable       Old X    -DE/DX   Delta X   Delta X   Delta X     New X
                                 (Linear)    (Quad)   (Total)
    R1        3.15369   0.01141   0.00000   0.01273   0.01273   3.16642
    R2        1.83545   0.00021   0.00000   0.00027   0.00027   1.83573
    A1        2.08359  -0.04596   0.00000   0.01698   0.01698   2.10057
         Item               Value     Threshold  Converged?
 Maximum Force            0.045961     0.000450     NO 
 RMS     Force            0.027341     0.000300     NO 
 Maximum Displacement     0.014565     0.001800     NO 
 RMS     Displacement     0.014636     0.001200     NO 
 Predicted change in Energy= 6.889512D-04
 GradGradGradGradGradGradGradGradGradGradGradGradGradGradGradGradGradGrad

                          Input orientation:                          
 ---------------------------------------------------------------------
 Center     Atomic      Atomic             Coordinates (Angstroms)
 Number     Number       Type             X           Y           Z
 ---------------------------------------------------------------------
      1          8           0        3.430862   -4.609683    1.157256
      2         17           0        2.811982   -5.042474    2.653017
      3          1           0        4.009271   -5.219511    0.670205
 ---------------------------------------------------------------------
                    Distance matrix (angstroms):
                    1          2          3
     1  O    0.000000
     2  Cl   1.675596   0.000000
     3  H    0.971425   2.323012   0.000000
 Stoichiometry    ClHO
 Framework group  CS[SG(ClHO)]
 Deg. of freedom     3
 Full point group                 CS      NOp   2
 Largest Abelian subgroup         CS      NOp   2
 Largest concise Abelian subgroup C1      NOp   1
                         Standard orientation:                         
 ---------------------------------------------------------------------
 Center     Atomic      Atomic             Coordinates (Angstroms)
 Number     Number       Type             X           Y           Z
 ---------------------------------------------------------------------
      1          8           0        0.032241    1.076701   -0.000000
      2         17           0        0.032241   -0.598895   -0.000000
      3          1           0       -0.806022    1.567601    0.000000
 ---------------------------------------------------------------------
 Rotational constants (GHZ):         791.8935479          15.0725398          14.7910144
 Standard basis: SVP (5D, 7F)
 There are    29 symmetry adapted cartesian basis functions of A'  symmetry.
 There are    10 symmetry adapted cartesian basis functions of A"  symmetry.
 There are    27 symmetry adapted basis functions of A'  symmetry.
 There are    10 symmetry adapted basis functions of A"  symmetry.
    37 basis functions,    69 primitive gaussians,    39 cartesian basis functions
    13 alpha electrons       13 beta electrons
       nuclear repulsion energy        51.1812548439 Hartrees.
 NAtoms=    3 NActive=    3 NUniq=    3 SFac= 1.00D+00 NAtFMM=   60 NAOKFM=F Big=F
 Integral buffers will be    131072 words long.
 Raffenetti 2 integral format.
 Two-electron integral symmetry is turned on.
 Nuclear repulsion after empirical dispersion term =       51.1796539278 Hartrees.
 One-electron integrals computed using PRISM.
 NBasis=    37 RedAO= T EigKep=  3.52D-02  NBF=    27    10
 NBsUse=    37 1.00D-06 EigRej= -1.00D+00 NBFU=    27    10
 Initial guess from the checkpoint file:  "/tmp/Gau-13934.chk"
 B after Tr=    -0.000000    0.000000    0.000000
         Rot=    1.000000   -0.000000    0.000000    0.000759 Ang=   0.09 deg.
 Initial guess orbital symmetries:
       Occupied  (A') (A') (A') (A') (A') (A") (A') (A') (A') (A')
                 (A") (A') (A")
       Virtual   (A') (A') (A') (A') (A') (A") (A') (A') (A") (A')
                 (A") (A') (A") (A') (A') (A') (A") (A') (A') (A")
                 (A') (A") (A') (A')
 Keep R1 ints in memory in symmetry-blocked form, NReq=7153137.
 Requested convergence on RMS density matrix=1.00D-08 within 128 cycles.
 Requested convergence on MAX density matrix=1.00D-06.
 Requested convergence on             energy=1.00D-06.
 No special actions if energy rises.
 SCF Done:  E(RB3LYP) =  -535.751896686     A.U. after    9 cycles
            NFock=  9  Conv=0.14D-08     -V/T= 2.0025
 Calling FoFJK, ICntrl=      2127 FMM=F ISym2X=1 I1Cent= 0 IOpClX= 0 NMat=1 NMatS=1 NMatT=0.
 ***** Axes restored to original set *****
 -------------------------------------------------------------------
 Center     Atomic                   Forces (Hartrees/Bohr)
 Number     Number              X              Y              Z
 -------------------------------------------------------------------
      1        8          -0.002626715    0.033347139   -0.025248116
      2       17           0.004632165   -0.015456792    0.005594422
      3        1          -0.002005450   -0.017890347    0.019653695
 -------------------------------------------------------------------
 Cartesian Forces:  Max     0.033347139 RMS     0.017506887

 GradGradGradGradGradGradGradGradGradGradGradGradGradGradGradGradGradGrad
 Berny optimization.
 FormGI is forming the generalized inverse of G from B-inverse, IUseBI=4.
 Internal  Forces:  Max     0.048925189 RMS     0.028557781
 Search for a saddle point.
 Step number   4 out of a maximum of  100
 All quantities printed in internal units (Hartrees-Bohrs-Radians)
 Swapping is turned off.
 Update second derivatives using D2CorX and points    1    2    3    4
 The second derivative matrix:
                          R1        R2        A1
           R1           0.30211
           R2          -0.00908   0.51782
           A1           0.01723  -0.00007   0.16168
 ITU=  0  0  0  0
     Eigenvalues ---    0.15959   0.30381   0.51820
 Eigenvectors required to have negative eigenvalues:
                          A1        R1        R2
   1                   -0.99275   0.12020   0.00286
 RFO step:  Lambda0=1.736714161D-01 Lambda=-5.93126060D-06.
 Linear search not attempted -- option 19 set.
 Iteration  1 RMS(Cart)=  0.00429819 RMS(Int)=  0.00000632
 Iteration  2 RMS(Cart)=  0.00000478 RMS(Int)=  0.00000000
 Iteration  3 RMS(Cart)=  0.00000000 RMS(Int)=  0.00000000
 ClnCor:  largest displacement from symmetrization is 2.36D-15 for atom     3.
 Variable       Old X    -DE/DX   Delta X   Delta X   Delta X     New X
                                 (Linear)    (Quad)   (Total)
    R1        3.16642   0.00728   0.00000   0.00385   0.00385   3.17027
    R2        1.83573   0.00018   0.00000   0.00014   0.00014   1.83587
    A1        2.10057  -0.04893   0.00000   0.00492   0.00492   2.10549
         Item               Value     Threshold  Converged?
 Maximum Force            0.048925     0.000450     NO 
 RMS     Force            0.028558     0.000300     NO 
 Maximum Displacement     0.004270     0.001800     NO 
 RMS     Displacement     0.004297     0.001200     NO 
 Predicted change in Energy= 2.170575D-04
 GradGradGradGradGradGradGradGradGradGradGradGradGradGradGradGradGradGrad

                          Input orientation:                          
 ---------------------------------------------------------------------
 Center     Atomic      Atomic             Coordinates (Angstroms)
 Number     Number       Type             X           Y           Z
 ---------------------------------------------------------------------
      1          8           0        3.431446   -4.611004    1.157397
      2         17           0        2.810518   -5.041917    2.655136
      3          1           0        4.010151   -5.218748    0.667945
 ---------------------------------------------------------------------
                    Distance matrix (angstroms):
                    1          2          3
     1  O    0.000000
     2  Cl   1.677635   0.000000
     3  H    0.971501   2.327942   0.000000
 Stoichiometry    ClHO
 Framework group  CS[SG(ClHO)]
 Deg. of freedom     3
 Full point group                 CS      NOp   2
 Largest Abelian subgroup         CS      NOp   2
 Largest concise Abelian subgroup C1      NOp   1
                         Standard orientation:                         
 ---------------------------------------------------------------------
 Center     Atomic      Atomic             Coordinates (Angstroms)
 Number     Number       Type             X           Y           Z
 ---------------------------------------------------------------------
      1          8           0        0.032150    1.077874   -0.000000
      2         17           0        0.032150   -0.599760    0.000000
      3          1           0       -0.803754    1.572929   -0.000000
 ---------------------------------------------------------------------
 Rotational constants (GHZ):         796.6369203          15.0308668          14.7525178
 Standard basis: SVP (5D, 7F)
 There are    29 symmetry adapted cartesian basis functions of A'  symmetry.
 There are    10 symmetry adapted cartesian basis functions of A"  symmetry.
 There are    27 symmetry adapted basis functions of A'  symmetry.
 There are    10 symmetry adapted basis functions of A"  symmetry.
    37 basis functions,    69 primitive gaussians,    39 cartesian basis functions
    13 alpha electrons       13 beta electrons
       nuclear repulsion energy        51.1205209165 Hartrees.
 NAtoms=    3 NActive=    3 NUniq=    3 SFac= 1.00D+00 NAtFMM=   60 NAOKFM=F Big=F
 Integral buffers will be    131072 words long.
 Raffenetti 2 integral format.
 Two-electron integral symmetry is turned on.
 Nuclear repulsion after empirical dispersion term =       51.1189205801 Hartrees.
 One-electron integrals computed using PRISM.
 NBasis=    37 RedAO= T EigKep=  3.54D-02  NBF=    27    10
 NBsUse=    37 1.00D-06 EigRej= -1.00D+00 NBFU=    27    10
 Initial guess from the checkpoint file:  "/tmp/Gau-13934.chk"
 B after Tr=     0.000000   -0.000000   -0.000000
         Rot=    1.000000    0.000000    0.000000    0.000220 Ang=   0.03 deg.
 Initial guess orbital symmetries:
       Occupied  (A') (A') (A') (A') (A') (A") (A') (A') (A') (A')
                 (A") (A') (A")
       Virtual   (A') (A') (A') (A') (A') (A") (A') (A') (A") (A')
                 (A") (A') (A") (A') (A') (A') (A") (A') (A') (A")
                 (A') (A") (A') (A')
 Keep R1 ints in memory in symmetry-blocked form, NReq=7153137.
 Requested convergence on RMS density matrix=1.00D-08 within 128 cycles.
 Requested convergence on MAX density matrix=1.00D-06.
 Requested convergence on             energy=1.00D-06.
 No special actions if energy rises.
 SCF Done:  E(RB3LYP) =  -535.751679734     A.U. after    8 cycles
            NFock=  8  Conv=0.30D-08     -V/T= 2.0025
 Calling FoFJK, ICntrl=      2127 FMM=F ISym2X=1 I1Cent= 0 IOpClX= 0 NMat=1 NMatS=1 NMatT=0.
 ***** Axes restored to original set *****
 -------------------------------------------------------------------
 Center     Atomic                   Forces (Hartrees/Bohr)
 Number     Number              X              Y              Z
 -------------------------------------------------------------------
      1        8          -0.003169292    0.033589708   -0.024495350
      2       17           0.005180927   -0.015361645    0.004527309
      3        1          -0.002011635   -0.018228063    0.019968041
 -------------------------------------------------------------------
 Cartesian Forces:  Max     0.033589708 RMS     0.017501382

 GradGradGradGradGradGradGradGradGradGradGradGradGradGradGradGradGradGrad
 Berny optimization.
 FormGI is forming the generalized inverse of G from B-inverse, IUseBI=4.
 Internal  Forces:  Max     0.049772189 RMS     0.028949020
 Search for a saddle point.
 Step number   5 out of a maximum of  100
 All quantities printed in internal units (Hartrees-Bohrs-Radians)
 Swapping is turned off.
 Update second derivatives using D2CorX and points    2    3    4    5
 The second derivative matrix:
                          R1        R2        A1
           R1           0.29575
           R2          -0.00924   0.51782
           A1           0.01372  -0.00012   0.16150
 ITU=  0  0  0  0
     Eigenvalues ---    0.16011   0.29675   0.51820
 Eigenvectors required to have negative eigenvalues:
                          A1        R1        R2
   1                   -0.99491   0.10077   0.00226
 RFO step:  Lambda0=1.745116944D-01 Lambda=-3.53270811D-06.
 Linear search not attempted -- option 19 set.
 Iteration  1 RMS(Cart)=  0.00334311 RMS(Int)=  0.00000373
 Iteration  2 RMS(Cart)=  0.00000282 RMS(Int)=  0.00000000
 Iteration  3 RMS(Cart)=  0.00000000 RMS(Int)=  0.00000000
 ClnCor:  largest displacement from symmetrization is 9.93D-16 for atom     1.
 Variable       Old X    -DE/DX   Delta X   Delta X   Delta X     New X
                                 (Linear)    (Quad)   (Total)
    R1        3.17027   0.00607   0.00000   0.00308   0.00308   3.17335
    R2        1.83587   0.00014   0.00000   0.00011   0.00011   1.83598
    A1        2.10549  -0.04977   0.00000   0.00378   0.00378   2.10927
         Item               Value     Threshold  Converged?
 Maximum Force            0.049772     0.000450     NO 
 RMS     Force            0.028949     0.000300     NO 
 Maximum Displacement     0.003310     0.001800     NO 
 RMS     Displacement     0.003343     0.001200     NO 
 Predicted change in Energy= 1.721487D-04
 GradGradGradGradGradGradGradGradGradGradGradGradGradGradGradGradGradGrad

                          Input orientation:                          
 ---------------------------------------------------------------------
 Center     Atomic      Atomic             Coordinates (Angstroms)
 Number     Number       Type             X           Y           Z
 ---------------------------------------------------------------------
      1          8           0        3.431906   -4.612018    1.157486
      2         17           0        2.809374   -5.041492    2.656799
      3          1           0        4.010834   -5.218158    0.666194
 ---------------------------------------------------------------------
                    Distance matrix (angstroms):
                    1          2          3
     1  O    0.000000
     2  Cl   1.679266   0.000000
     3  H    0.971561   2.331786   0.000000
 Stoichiometry    ClHO
 Framework group  CS[SG(ClHO)]
 Deg. of freedom     3
 Full point group                 CS      NOp   2
 Largest Abelian subgroup         CS      NOp   2
 Largest concise Abelian subgroup C1      NOp   1
                         Standard orientation:                         
 ---------------------------------------------------------------------
 Center     Atomic      Atomic             Coordinates (Angstroms)
 Number     Number       Type             X           Y           Z
 ---------------------------------------------------------------------
      1          8           0        0.032080    1.078819    0.000000
      2         17           0        0.032080   -0.600448   -0.000000
      3          1           0       -0.801998    1.577060    0.000000
 ---------------------------------------------------------------------
 Rotational constants (GHZ):         800.3334487          14.9978360          14.7219542
 Standard basis: SVP (5D, 7F)
 There are    29 symmetry adapted cartesian basis functions of A'  symmetry.
 There are    10 symmetry adapted cartesian basis functions of A"  symmetry.
 There are    27 symmetry adapted basis functions of A'  symmetry.
 There are    10 symmetry adapted basis functions of A"  symmetry.
    37 basis functions,    69 primitive gaussians,    39 cartesian basis functions
    13 alpha electrons       13 beta electrons
       nuclear repulsion energy        51.0722057787 Hartrees.
 NAtoms=    3 NActive=    3 NUniq=    3 SFac= 1.00D+00 NAtFMM=   60 NAOKFM=F Big=F
 Integral buffers will be    131072 words long.
 Raffenetti 2 integral format.
 Two-electron integral symmetry is turned on.
 Nuclear repulsion after empirical dispersion term =       51.0706058998 Hartrees.
 One-electron integrals computed using PRISM.
 NBasis=    37 RedAO= T EigKep=  3.55D-02  NBF=    27    10
 NBsUse=    37 1.00D-06 EigRej= -1.00D+00 NBFU=    27    10
 Initial guess from the checkpoint file:  "/tmp/Gau-13934.chk"
 B after Tr=    -0.000000   -0.000000    0.000000
         Rot=    1.000000   -0.000000    0.000000    0.000170 Ang=   0.02 deg.
 Initial guess orbital symmetries:
       Occupied  (A') (A') (A') (A') (A') (A") (A') (A') (A') (A')
                 (A") (A') (A")
       Virtual   (A') (A') (A') (A') (A') (A") (A') (A') (A") (A')
                 (A") (A') (A") (A') (A') (A') (A") (A') (A') (A")
                 (A') (A") (A') (A')
 Keep R1 ints in memory in symmetry-blocked form, NReq=7153137.
 Requested convergence on RMS density matrix=1.00D-08 within 128 cycles.
 Requested convergence on MAX density matrix=1.00D-06.
 Requested convergence on             energy=1.00D-06.
 No special actions if energy rises.
 SCF Done:  E(RB3LYP) =  -535.751507609     A.U. after    8 cycles
            NFock=  8  Conv=0.23D-08     -V/T= 2.0025
 Calling FoFJK, ICntrl=      2127 FMM=F ISym2X=1 I1Cent= 0 IOpClX= 0 NMat=1 NMatS=1 NMatT=0.
 ***** Axes restored to original set *****
 -------------------------------------------------------------------
 Center     Atomic                   Forces (Hartrees/Bohr)
 Number     Number              X              Y              Z
 -------------------------------------------------------------------
      1        8          -0.003595409    0.033772930   -0.023897621
      2       17           0.005610673   -0.015284590    0.003689351
      3        1          -0.002015263   -0.018488340    0.020208270
 -------------------------------------------------------------------
 Cartesian Forces:  Max     0.033772930 RMS     0.017504278

 GradGradGradGradGradGradGradGradGradGradGradGradGradGradGradGradGradGrad
 Berny optimization.
 FormGI is forming the generalized inverse of G from B-inverse, IUseBI=4.
 Internal  Forces:  Max     0.050422251 RMS     0.029261253
 Search for a saddle point.
 Step number   6 out of a maximum of  100
 All quantities printed in internal units (Hartrees-Bohrs-Radians)
 Swapping is turned off.
 Second derivative matrix not updated -- analytic derivatives used.
 The second derivative matrix:
                          R1        R2        A1
           R1           0.29575
           R2          -0.00924   0.51782
           A1           0.01372  -0.00012   0.16150
 ITU=  0  0  0  0
     Eigenvalues ---    0.16011   0.29675   0.51820
 Eigenvectors required to have negative eigenvalues:
                          A1        R1        R2
   1                   -0.99491   0.10077   0.00226
 RFO step:  Lambda0=1.748054149D-01 Lambda= 0.00000000D+00.
 Linear search not attempted -- option 19 set.
 Iteration  1 RMS(Cart)=  0.00005148 RMS(Int)=  0.00000000
 Iteration  2 RMS(Cart)=  0.00000000 RMS(Int)=  0.00000000
 ClnCor:  largest displacement from symmetrization is 2.81D-15 for atom     3.
 Variable       Old X    -DE/DX   Delta X   Delta X   Delta X     New X
                                 (Linear)    (Quad)   (Total)
    R1        3.17335   0.00512   0.00000   0.00005   0.00005   3.17340
    R2        1.83598   0.00011   0.00000   0.00000   0.00000   1.83599
    A1        2.10927  -0.05042   0.00000   0.00006   0.00006   2.10933
         Item               Value     Threshold  Converged?
 Maximum Force            0.050422     0.000450     NO 
 RMS     Force            0.029261     0.000300     NO 
 Maximum Displacement     0.000051     0.001800     YES
 RMS     Displacement     0.000051     0.001200     YES
 Predicted change in Energy= 2.697388D-06
 GradGradGradGradGradGradGradGradGradGradGradGradGradGradGradGradGradGrad

                          Input orientation:                          
 ---------------------------------------------------------------------
 Center     Atomic      Atomic             Coordinates (Angstroms)
 Number     Number       Type             X           Y           Z
 ---------------------------------------------------------------------
      1          8           0        3.431913   -4.612034    1.157487
      2         17           0        2.809357   -5.041485    2.656825
      3          1           0        4.010844   -5.218149    0.666167
 ---------------------------------------------------------------------
                    Distance matrix (angstroms):
                    1          2          3
     1  O    0.000000
     2  Cl   1.679291   0.000000
     3  H    0.971562   2.331845   0.000000
 Stoichiometry    ClHO
 Framework group  CS[SG(ClHO)]
 Deg. of freedom     3
 Full point group                 CS      NOp   2
 Largest Abelian subgroup         CS      NOp   2
 Largest concise Abelian subgroup C1      NOp   1
                         Standard orientation:                         
 ---------------------------------------------------------------------
 Center     Atomic      Atomic             Coordinates (Angstroms)
 Number     Number       Type             X           Y           Z
 ---------------------------------------------------------------------
      1          8           0        0.032079    1.078833    0.000000
      2         17           0        0.032079   -0.600458   -0.000000
      3          1           0       -0.801971    1.577124    0.000000
 ---------------------------------------------------------------------
 Rotational constants (GHZ):         800.3911837          14.9973274          14.7214836
 Standard basis: SVP (5D, 7F)
 There are    29 symmetry adapted cartesian basis functions of A'  symmetry.
 There are    10 symmetry adapted cartesian basis functions of A"  symmetry.
 There are    27 symmetry adapted basis functions of A'  symmetry.
 There are    10 symmetry adapted basis functions of A"  symmetry.
    37 basis functions,    69 primitive gaussians,    39 cartesian basis functions
    13 alpha electrons       13 beta electrons
       nuclear repulsion energy        51.0714623431 Hartrees.
 NAtoms=    3 NActive=    3 NUniq=    3 SFac= 1.00D+00 NAtFMM=   60 NAOKFM=F Big=F
 Integral buffers will be    131072 words long.
 Raffenetti 2 integral format.
 Two-electron integral symmetry is turned on.
 Nuclear repulsion after empirical dispersion term =       51.0698624713 Hartrees.
 One-electron integrals computed using PRISM.
 NBasis=    37 RedAO= T EigKep=  3.55D-02  NBF=    27    10
 NBsUse=    37 1.00D-06 EigRej= -1.00D+00 NBFU=    27    10
 Initial guess from the checkpoint file:  "/tmp/Gau-13934.chk"
 B after Tr=     0.000000    0.000000    0.000000
         Rot=    1.000000    0.000000   -0.000000    0.000003 Ang=   0.00 deg.
 Initial guess orbital symmetries:
       Occupied  (A') (A') (A') (A') (A') (A") (A') (A') (A') (A')
                 (A") (A') (A")
       Virtual   (A') (A') (A') (A') (A') (A") (A') (A') (A") (A')
                 (A") (A') (A") (A') (A') (A') (A") (A') (A') (A")
                 (A') (A") (A') (A')
 Keep R1 ints in memory in symmetry-blocked form, NReq=7153137.
 Requested convergence on RMS density matrix=1.00D-08 within 128 cycles.
 Requested convergence on MAX density matrix=1.00D-06.
 Requested convergence on             energy=1.00D-06.
 No special actions if energy rises.
 SCF Done:  E(RB3LYP) =  -535.751504912     A.U. after    5 cycles
            NFock=  5  Conv=0.49D-08     -V/T= 2.0025
 Calling FoFJK, ICntrl=      2127 FMM=F ISym2X=1 I1Cent= 0 IOpClX= 0 NMat=1 NMatS=1 NMatT=0.
 ***** Axes restored to original set *****
 -------------------------------------------------------------------
 Center     Atomic                   Forces (Hartrees/Bohr)
 Number     Number              X              Y              Z
 -------------------------------------------------------------------
      1        8          -0.003602080    0.033775900   -0.023888355
      2       17           0.005617274   -0.015283424    0.003676495
      3        1          -0.002015194   -0.018492476    0.020211861
 -------------------------------------------------------------------
 Cartesian Forces:  Max     0.033775900 RMS     0.017504429

 GradGradGradGradGradGradGradGradGradGradGradGradGradGradGradGradGradGrad
 Berny optimization.
 FormGI is forming the generalized inverse of G from B-inverse, IUseBI=4.
 Internal  Forces:  Max     0.050432243 RMS     0.029266145
 Search for a saddle point.
 Step number   7 out of a maximum of  100
 All quantities printed in internal units (Hartrees-Bohrs-Radians)
 Swapping is turned off.
 Update second derivatives using D2CorX and points    4    5    7
 The second derivative matrix:
                          R1        R2        A1
           R1           0.29269
           R2          -0.00931   0.51782
           A1           0.01207  -0.00013   0.16211
 ITU=  0  0  0  0
     Eigenvalues ---    0.16100   0.29341   0.51820
 Eigenvectors required to have negative eigenvalues:
                          A1        R1        R2
   1                   -0.99581   0.09141   0.00201
 RFO step:  Lambda0=1.756298900D-01 Lambda=-7.76712998D-07.
 Linear search not attempted -- option 19 set.
 Iteration  1 RMS(Cart)=  0.00157241 RMS(Int)=  0.00000082
 Iteration  2 RMS(Cart)=  0.00000062 RMS(Int)=  0.00000000
 ClnCor:  largest displacement from symmetrization is 8.88D-16 for atom     3.
 Variable       Old X    -DE/DX   Delta X   Delta X   Delta X     New X
                                 (Linear)    (Quad)   (Total)
    R1        3.17340   0.00511   0.00000   0.00147   0.00147   3.17487
    R2        1.83599   0.00011   0.00000   0.00005   0.00005   1.83604
    A1        2.10933  -0.05043   0.00000   0.00177   0.00177   2.11110
         Item               Value     Threshold  Converged?
 Maximum Force            0.050432     0.000450     NO 
 RMS     Force            0.029266     0.000300     NO 
 Maximum Displacement     0.001553     0.001800     YES
 RMS     Displacement     0.001572     0.001200     NO 
 Predicted change in Energy= 8.229301D-05
 GradGradGradGradGradGradGradGradGradGradGradGradGradGradGradGradGradGrad

                          Input orientation:                          
 ---------------------------------------------------------------------
 Center     Atomic      Atomic             Coordinates (Angstroms)
 Number     Number       Type             X           Y           Z
 ---------------------------------------------------------------------
      1          8           0        3.432132   -4.612509    1.157523
      2         17           0        2.808818   -5.041287    2.657611
      3          1           0        4.011165   -5.217872    0.665345
 ---------------------------------------------------------------------
                    Distance matrix (angstroms):
                    1          2          3
     1  O    0.000000
     2  Cl   1.680069   0.000000
     3  H    0.971588   2.333655   0.000000
 Stoichiometry    ClHO
 Framework group  CS[SG(ClHO)]
 Deg. of freedom     3
 Full point group                 CS      NOp   2
 Largest Abelian subgroup         CS      NOp   2
 Largest concise Abelian subgroup C1      NOp   1
                         Standard orientation:                         
 ---------------------------------------------------------------------
 Center     Atomic      Atomic             Coordinates (Angstroms)
 Number     Number       Type             X           Y           Z
 ---------------------------------------------------------------------
      1          8           0        0.032046    1.079285    0.000000
      2         17           0        0.032046   -0.600785   -0.000000
      3          1           0       -0.801144    1.579064    0.000000
 ---------------------------------------------------------------------
 Rotational constants (GHZ):         802.1398144          14.9816551          14.7069714
 Standard basis: SVP (5D, 7F)
 There are    29 symmetry adapted cartesian basis functions of A'  symmetry.
 There are    10 symmetry adapted cartesian basis functions of A"  symmetry.
 There are    27 symmetry adapted basis functions of A'  symmetry.
 There are    10 symmetry adapted basis functions of A"  symmetry.
    37 basis functions,    69 primitive gaussians,    39 cartesian basis functions
    13 alpha electrons       13 beta electrons
       nuclear repulsion energy        51.0485019573 Hartrees.
 NAtoms=    3 NActive=    3 NUniq=    3 SFac= 1.00D+00 NAtFMM=   60 NAOKFM=F Big=F
 Integral buffers will be    131072 words long.
 Raffenetti 2 integral format.
 Two-electron integral symmetry is turned on.
 Nuclear repulsion after empirical dispersion term =       51.0469023024 Hartrees.
 One-electron integrals computed using PRISM.
 NBasis=    37 RedAO= T EigKep=  3.56D-02  NBF=    27    10
 NBsUse=    37 1.00D-06 EigRej= -1.00D+00 NBFU=    27    10
 Initial guess from the checkpoint file:  "/tmp/Gau-13934.chk"
 B after Tr=     0.000000    0.000000    0.000000
         Rot=    1.000000    0.000000   -0.000000    0.000080 Ang=   0.01 deg.
 Initial guess orbital symmetries:
       Occupied  (A') (A') (A') (A') (A') (A") (A') (A') (A') (A')
                 (A") (A') (A")
       Virtual   (A') (A') (A') (A') (A') (A") (A') (A') (A") (A')
                 (A") (A') (A") (A') (A') (A') (A") (A') (A') (A")
                 (A') (A") (A') (A')
 Keep R1 ints in memory in symmetry-blocked form, NReq=7153137.
 Requested convergence on RMS density matrix=1.00D-08 within 128 cycles.
 Requested convergence on MAX density matrix=1.00D-06.
 Requested convergence on             energy=1.00D-06.
 No special actions if energy rises.
 SCF Done:  E(RB3LYP) =  -535.751422622     A.U. after    7 cycles
            NFock=  7  Conv=0.67D-08     -V/T= 2.0025
 Calling FoFJK, ICntrl=      2127 FMM=F ISym2X=1 I1Cent= 0 IOpClX= 0 NMat=1 NMatS=1 NMatT=0.
 ***** Axes restored to original set *****
 -------------------------------------------------------------------
 Center     Atomic                   Forces (Hartrees/Bohr)
 Number     Number              X              Y              Z
 -------------------------------------------------------------------
      1        8          -0.003804415    0.033862348   -0.023604038
      2       17           0.005819798   -0.015246777    0.003281295
      3        1          -0.002015383   -0.018615571    0.020322743
 -------------------------------------------------------------------
 Cartesian Forces:  Max     0.033862348 RMS     0.017508725

 GradGradGradGradGradGradGradGradGradGradGradGradGradGradGradGradGradGrad
 Berny optimization.
 FormGI is forming the generalized inverse of G from B-inverse, IUseBI=4.
 Internal  Forces:  Max     0.050735715 RMS     0.029415733
 Search for a saddle point.
 Step number   8 out of a maximum of  100
 All quantities printed in internal units (Hartrees-Bohrs-Radians)
 Swapping is turned off.
 Update second derivatives using D2CorX and points    5    6    7    8
 The second derivative matrix:
                          R1        R2        A1
           R1           0.29081
           R2          -0.00933   0.51782
           A1           0.01105  -0.00012   0.16238
 ITU=  0  0  0  0
     Eigenvalues ---    0.16143   0.29137   0.51820
 Eigenvectors required to have negative eigenvalues:
                          A1        R1        R2
   1                   -0.99636   0.08522   0.00190
 RFO step:  Lambda0=1.761678435D-01 Lambda=-3.54081399D-07.
 Linear search not attempted -- option 19 set.
 Iteration  1 RMS(Cart)=  0.00106313 RMS(Int)=  0.00000037
 Iteration  2 RMS(Cart)=  0.00000028 RMS(Int)=  0.00000000
 ClnCor:  largest displacement from symmetrization is 9.93D-16 for atom     1.
 Variable       Old X    -DE/DX   Delta X   Delta X   Delta X     New X
                                 (Linear)    (Quad)   (Total)
    R1        3.17487   0.00466   0.00000   0.00100   0.00100   3.17587
    R2        1.83604   0.00010   0.00000   0.00003   0.00003   1.83607
    A1        2.11110  -0.05074   0.00000   0.00119   0.00119   2.11229
         Item               Value     Threshold  Converged?
 Maximum Force            0.050736     0.000450     NO 
 RMS     Force            0.029416     0.000300     NO 
 Maximum Displacement     0.001048     0.001800     YES
 RMS     Displacement     0.001063     0.001200     YES
 Predicted change in Energy= 5.608157D-05
 GradGradGradGradGradGradGradGradGradGradGradGradGradGradGradGradGradGrad

                          Input orientation:                          
 ---------------------------------------------------------------------
 Center     Atomic      Atomic             Coordinates (Angstroms)
 Number     Number       Type             X           Y           Z
 ---------------------------------------------------------------------
      1          8           0        3.432280   -4.612829    1.157545
      2         17           0        2.808453   -5.041154    2.658144
      3          1           0        4.011381   -5.217684    0.664790
 ---------------------------------------------------------------------
                    Distance matrix (angstroms):
                    1          2          3
     1  O    0.000000
     2  Cl   1.680601   0.000000
     3  H    0.971604   2.334878   0.000000
 Stoichiometry    ClHO
 Framework group  CS[SG(ClHO)]
 Deg. of freedom     3
 Full point group                 CS      NOp   2
 Largest Abelian subgroup         CS      NOp   2
 Largest concise Abelian subgroup C1      NOp   1
                         Standard orientation:                         
 ---------------------------------------------------------------------
 Center     Atomic      Atomic             Coordinates (Angstroms)
 Number     Number       Type             X           Y           Z
 ---------------------------------------------------------------------
      1          8           0        0.032023    1.079594    0.000000
      2         17           0        0.032023   -0.601007   -0.000000
      3          1           0       -0.800583    1.580373    0.000000
 ---------------------------------------------------------------------
 Rotational constants (GHZ):         803.3278100          14.9709915          14.6970932
 Standard basis: SVP (5D, 7F)
 There are    29 symmetry adapted cartesian basis functions of A'  symmetry.
 There are    10 symmetry adapted cartesian basis functions of A"  symmetry.
 There are    27 symmetry adapted basis functions of A'  symmetry.
 There are    10 symmetry adapted basis functions of A"  symmetry.
    37 basis functions,    69 primitive gaussians,    39 cartesian basis functions
    13 alpha electrons       13 beta electrons
       nuclear repulsion energy        51.0328717620 Hartrees.
 NAtoms=    3 NActive=    3 NUniq=    3 SFac= 1.00D+00 NAtFMM=   60 NAOKFM=F Big=F
 Integral buffers will be    131072 words long.
 Raffenetti 2 integral format.
 Two-electron integral symmetry is turned on.
 Nuclear repulsion after empirical dispersion term =       51.0312722545 Hartrees.
 One-electron integrals computed using PRISM.
 NBasis=    37 RedAO= T EigKep=  3.56D-02  NBF=    27    10
 NBsUse=    37 1.00D-06 EigRej= -1.00D+00 NBFU=    27    10
 Initial guess from the checkpoint file:  "/tmp/Gau-13934.chk"
 B after Tr=    -0.000000   -0.000000   -0.000000
         Rot=    1.000000   -0.000000    0.000000    0.000054 Ang=   0.01 deg.
 Initial guess orbital symmetries:
       Occupied  (A') (A') (A') (A') (A') (A") (A') (A') (A') (A')
                 (A") (A') (A")
       Virtual   (A') (A') (A') (A') (A') (A") (A') (A') (A") (A')
                 (A") (A') (A") (A') (A') (A') (A") (A') (A') (A")
                 (A') (A") (A') (A')
 Keep R1 ints in memory in symmetry-blocked form, NReq=7153137.
 Requested convergence on RMS density matrix=1.00D-08 within 128 cycles.
 Requested convergence on MAX density matrix=1.00D-06.
 Requested convergence on             energy=1.00D-06.
 No special actions if energy rises.
 SCF Done:  E(RB3LYP) =  -535.751366541     A.U. after    7 cycles
            NFock=  7  Conv=0.45D-08     -V/T= 2.0025
 Calling FoFJK, ICntrl=      2127 FMM=F ISym2X=1 I1Cent= 0 IOpClX= 0 NMat=1 NMatS=1 NMatT=0.
 ***** Axes restored to original set *****
 -------------------------------------------------------------------
 Center     Atomic                   Forces (Hartrees/Bohr)
 Number     Number              X              Y              Z
 -------------------------------------------------------------------
      1        8          -0.003943070    0.033921772   -0.023409366
      2       17           0.005957084   -0.015221695    0.003013184
      3        1          -0.002014014   -0.018700078    0.020396183
 -------------------------------------------------------------------
 Cartesian Forces:  Max     0.033921772 RMS     0.017512702

 GradGradGradGradGradGradGradGradGradGradGradGradGradGradGradGradGradGrad
 Berny optimization.
 FormGI is forming the generalized inverse of G from B-inverse, IUseBI=4.
 Internal  Forces:  Max     0.050940097 RMS     0.029517799
 Search for a saddle point.
 Step number   9 out of a maximum of  100
 All quantities printed in internal units (Hartrees-Bohrs-Radians)
 Swapping is turned off.
 Update second derivatives using D2CorX and points    6    7    8    9
 The second derivative matrix:
                          R1        R2        A1
           R1           0.28975
           R2          -0.00933   0.51782
           A1           0.01050  -0.00010   0.16259
 ITU=  0  0  0  0
     Eigenvalues ---    0.16172   0.29023   0.51820
 Eigenvectors required to have negative eigenvalues:
                          A1        R1        R2
   1                   -0.99664   0.08188   0.00188
 RFO step:  Lambda0=1.765313669D-01 Lambda=-1.03184713D-07.
 Linear search not attempted -- option 19 set.
 Iteration  1 RMS(Cart)=  0.00057378 RMS(Int)=  0.00000011
 Iteration  2 RMS(Cart)=  0.00000008 RMS(Int)=  0.00000000
 ClnCor:  largest displacement from symmetrization is 9.93D-16 for atom     1.
 Variable       Old X    -DE/DX   Delta X   Delta X   Delta X     New X
                                 (Linear)    (Quad)   (Total)
    R1        3.17587   0.00436   0.00000   0.00055   0.00055   3.17642
    R2        1.83607   0.00010   0.00000   0.00001   0.00001   1.83608
    A1        2.11229  -0.05094   0.00000   0.00064   0.00064   2.11293
         Item               Value     Threshold  Converged?
 Maximum Force            0.050940     0.000450     NO 
 RMS     Force            0.029518     0.000300     NO 
 Maximum Displacement     0.000564     0.001800     YES
 RMS     Displacement     0.000574     0.001200     YES
 Predicted change in Energy= 3.045704D-05
 GradGradGradGradGradGradGradGradGradGradGradGradGradGradGradGradGradGrad

                          Input orientation:                          
 ---------------------------------------------------------------------
 Center     Atomic      Atomic             Coordinates (Angstroms)
 Number     Number       Type             X           Y           Z
 ---------------------------------------------------------------------
      1          8           0        3.432362   -4.613003    1.157555
      2         17           0        2.808257   -5.041083    2.658432
      3          1           0        4.011496   -5.217582    0.664491
 ---------------------------------------------------------------------
                    Distance matrix (angstroms):
                    1          2          3
     1  O    0.000000
     2  Cl   1.680889   0.000000
     3  H    0.971610   2.335537   0.000000
 Stoichiometry    ClHO
 Framework group  CS[SG(ClHO)]
 Deg. of freedom     3
 Full point group                 CS      NOp   2
 Largest Abelian subgroup         CS      NOp   2
 Largest concise Abelian subgroup C1      NOp   1
                         Standard orientation:                         
 ---------------------------------------------------------------------
 Center     Atomic      Atomic             Coordinates (Angstroms)
 Number     Number       Type             X           Y           Z
 ---------------------------------------------------------------------
      1          8           0        0.032011    1.079761    0.000000
      2         17           0        0.032011   -0.601128   -0.000000
      3          1           0       -0.800278    1.581080    0.000000
 ---------------------------------------------------------------------
 Rotational constants (GHZ):         803.9743074          14.9652123          14.6917397
 Standard basis: SVP (5D, 7F)
 There are    29 symmetry adapted cartesian basis functions of A'  symmetry.
 There are    10 symmetry adapted cartesian basis functions of A"  symmetry.
 There are    27 symmetry adapted basis functions of A'  symmetry.
 There are    10 symmetry adapted basis functions of A"  symmetry.
    37 basis functions,    69 primitive gaussians,    39 cartesian basis functions
    13 alpha electrons       13 beta electrons
       nuclear repulsion energy        51.0244063933 Hartrees.
 NAtoms=    3 NActive=    3 NUniq=    3 SFac= 1.00D+00 NAtFMM=   60 NAOKFM=F Big=F
 Integral buffers will be    131072 words long.
 Raffenetti 2 integral format.
 Two-electron integral symmetry is turned on.
 Nuclear repulsion after empirical dispersion term =       51.0228069654 Hartrees.
 One-electron integrals computed using PRISM.
 NBasis=    37 RedAO= T EigKep=  3.56D-02  NBF=    27    10
 NBsUse=    37 1.00D-06 EigRej= -1.00D+00 NBFU=    27    10
 Initial guess from the checkpoint file:  "/tmp/Gau-13934.chk"
 B after Tr=    -0.000000    0.000000    0.000000
         Rot=    1.000000   -0.000000    0.000000    0.000029 Ang=   0.00 deg.
 Initial guess orbital symmetries:
       Occupied  (A') (A') (A') (A') (A') (A") (A') (A') (A') (A')
                 (A") (A') (A")
       Virtual   (A') (A') (A') (A') (A') (A") (A') (A') (A") (A')
                 (A") (A') (A") (A') (A') (A') (A") (A') (A') (A")
                 (A') (A") (A') (A')
 Keep R1 ints in memory in symmetry-blocked form, NReq=7153137.
 Requested convergence on RMS density matrix=1.00D-08 within 128 cycles.
 Requested convergence on MAX density matrix=1.00D-06.
 Requested convergence on             energy=1.00D-06.
 No special actions if energy rises.
 SCF Done:  E(RB3LYP) =  -535.751336084     A.U. after    7 cycles
            NFock=  7  Conv=0.25D-08     -V/T= 2.0025
 Calling FoFJK, ICntrl=      2127 FMM=F ISym2X=1 I1Cent= 0 IOpClX= 0 NMat=1 NMatS=1 NMatT=0.
 ***** Axes restored to original set *****
 -------------------------------------------------------------------
 Center     Atomic                   Forces (Hartrees/Bohr)
 Number     Number              X              Y              Z
 -------------------------------------------------------------------
      1        8          -0.004019492    0.033955208   -0.023302684
      2       17           0.006031348   -0.015208058    0.002868087
      3        1          -0.002011857   -0.018747150    0.020434596
 -------------------------------------------------------------------
 Cartesian Forces:  Max     0.033955208 RMS     0.017515363

 GradGradGradGradGradGradGradGradGradGradGradGradGradGradGradGradGradGrad
 Berny optimization.
 FormGI is forming the generalized inverse of G from B-inverse, IUseBI=4.
 Internal  Forces:  Max     0.051050244 RMS     0.029573253
 Search for a saddle point.
 Step number  10 out of a maximum of  100
 All quantities printed in internal units (Hartrees-Bohrs-Radians)
 Swapping is turned off.
 Update second derivatives using D2CorX and points    7    8   10
 The second derivative matrix:
                          R1        R2        A1
           R1           0.28952
           R2          -0.00932   0.51782
           A1           0.01038  -0.00008   0.16262
 ITU=  0  0  0  0
     Eigenvalues ---    0.16177   0.28999   0.51820
 Eigenvectors required to have negative eigenvalues:
                          A1        R1        R2
   1                   -0.99670   0.08115   0.00191
 RFO step:  Lambda0=1.766290601D-01 Lambda= 0.00000000D+00.
 Linear search not attempted -- option 19 set.
 Iteration  1 RMS(Cart)=  0.00012527 RMS(Int)=  0.00000001
 Iteration  2 RMS(Cart)=  0.00000000 RMS(Int)=  0.00000000
 ClnCor:  largest displacement from symmetrization is 3.39D-15 for atom     3.
 Variable       Old X    -DE/DX   Delta X   Delta X   Delta X     New X
                                 (Linear)    (Quad)   (Total)
    R1        3.17642   0.00419   0.00000   0.00012   0.00012   3.17654
    R2        1.83608   0.00010   0.00000  -0.00000  -0.00000   1.83608
    A1        2.11293  -0.05105   0.00000   0.00014   0.00014   2.11307
         Item               Value     Threshold  Converged?
 Maximum Force            0.051050     0.000450     NO 
 RMS     Force            0.029573     0.000300     NO 
 Maximum Displacement     0.000122     0.001800     YES
 RMS     Displacement     0.000125     0.001200     YES
 Predicted change in Energy= 6.696627D-06
 GradGradGradGradGradGradGradGradGradGradGradGradGradGradGradGradGradGrad

                          Input orientation:                          
 ---------------------------------------------------------------------
 Center     Atomic      Atomic             Coordinates (Angstroms)
 Number     Number       Type             X           Y           Z
 ---------------------------------------------------------------------
      1          8           0        3.432380   -4.613041    1.157557
      2         17           0        2.808214   -5.041067    2.658494
      3          1           0        4.011521   -5.217560    0.664427
 ---------------------------------------------------------------------
                    Distance matrix (angstroms):
                    1          2          3
     1  O    0.000000
     2  Cl   1.680953   0.000000
     3  H    0.971609   2.335681   0.000000
 Stoichiometry    ClHO
 Framework group  CS[SG(ClHO)]
 Deg. of freedom     3
 Full point group                 CS      NOp   2
 Largest Abelian subgroup         CS      NOp   2
 Largest concise Abelian subgroup C1      NOp   1
                         Standard orientation:                         
 ---------------------------------------------------------------------
 Center     Atomic      Atomic             Coordinates (Angstroms)
 Number     Number       Type             X           Y           Z
 ---------------------------------------------------------------------
      1          8           0        0.032008    1.079798   -0.000000
      2         17           0        0.032008   -0.601154    0.000000
      3          1           0       -0.800210    1.581234   -0.000000
 ---------------------------------------------------------------------
 Rotational constants (GHZ):         804.1189748          14.9639456          14.6905671
 Standard basis: SVP (5D, 7F)
 There are    29 symmetry adapted cartesian basis functions of A'  symmetry.
 There are    10 symmetry adapted cartesian basis functions of A"  symmetry.
 There are    27 symmetry adapted basis functions of A'  symmetry.
 There are    10 symmetry adapted basis functions of A"  symmetry.
    37 basis functions,    69 primitive gaussians,    39 cartesian basis functions
    13 alpha electrons       13 beta electrons
       nuclear repulsion energy        51.0225583402 Hartrees.
 NAtoms=    3 NActive=    3 NUniq=    3 SFac= 1.00D+00 NAtFMM=   60 NAOKFM=F Big=F
 Integral buffers will be    131072 words long.
 Raffenetti 2 integral format.
 Two-electron integral symmetry is turned on.
 Nuclear repulsion after empirical dispersion term =       51.0209589297 Hartrees.
 One-electron integrals computed using PRISM.
 NBasis=    37 RedAO= T EigKep=  3.57D-02  NBF=    27    10
 NBsUse=    37 1.00D-06 EigRej= -1.00D+00 NBFU=    27    10
 Initial guess from the checkpoint file:  "/tmp/Gau-13934.chk"
 B after Tr=    -0.000000   -0.000000    0.000000
         Rot=    1.000000    0.000000    0.000000    0.000006 Ang=   0.00 deg.
 Initial guess orbital symmetries:
       Occupied  (A') (A') (A') (A') (A') (A") (A') (A') (A') (A')
                 (A") (A') (A")
       Virtual   (A') (A') (A') (A') (A') (A") (A') (A') (A") (A')
                 (A") (A') (A") (A') (A') (A') (A") (A') (A') (A")
                 (A') (A") (A') (A')
 Keep R1 ints in memory in symmetry-blocked form, NReq=7153137.
 Requested convergence on RMS density matrix=1.00D-08 within 128 cycles.
 Requested convergence on MAX density matrix=1.00D-06.
 Requested convergence on             energy=1.00D-06.
 No special actions if energy rises.
[...]
           A1           0.01038  -0.00008   0.16262
 ITU=  0  0  0  0
     Eigenvalues ---    0.16177   0.28999   0.51820
 Eigenvectors required to have negative eigenvalues:
                          A1        R1        R2
   1                   -0.99670   0.08115   0.00191
 RFO step:  Lambda0=1.766406515D-01 Lambda= 0.00000000D+00.
 Linear search not attempted -- option 19 set.
 Iteration  1 RMS(Cart)=  0.00000002 RMS(Int)=  0.00000000
 ClnCor:  largest displacement from symmetrization is 5.69D-15 for atom     3.
 Variable       Old X    -DE/DX   Delta X   Delta X   Delta X     New X
                                 (Linear)    (Quad)   (Total)
    R1        3.17654   0.00416   0.00000   0.00000   0.00000   3.17654
    R2        1.83608   0.00010   0.00000  -0.00000  -0.00000   1.83608
    A1        2.11308  -0.05107   0.00000   0.00000   0.00000   2.11308
         Item               Value     Threshold  Converged?
 Maximum Force            0.051075     0.000450     NO 
 RMS     Force            0.029586     0.000300     NO 
 Maximum Displacement     0.000000     0.001800     YES
 RMS     Displacement     0.000000     0.001200     YES
 Predicted change in Energy= 1.362097D-09
 GradGradGradGradGradGradGradGradGradGradGradGradGradGradGradGradGradGrad

                          Input orientation:                          
 ---------------------------------------------------------------------
 Center     Atomic      Atomic             Coordinates (Angstroms)
 Number     Number       Type             X           Y           Z
 ---------------------------------------------------------------------
      1          8           0        3.432380   -4.613043    1.157558
      2         17           0        2.808213   -5.041066    2.658495
      3          1           0        4.011522   -5.217559    0.664425
 ---------------------------------------------------------------------
                    Distance matrix (angstroms):
                    1          2          3
     1  O    0.000000
     2  Cl   1.680952   0.000000
     3  H    0.971609   2.335683   0.000000
 Stoichiometry    ClHO
 Framework group  CS[SG(ClHO)]
 Deg. of freedom     3
 Full point group                 CS      NOp   2
 Largest Abelian subgroup         CS      NOp   2
 Largest concise Abelian subgroup C1      NOp   1
                         Standard orientation:                         
 ---------------------------------------------------------------------
 Center     Atomic      Atomic             Coordinates (Angstroms)
 Number     Number       Type             X           Y           Z
 ---------------------------------------------------------------------
      1          8           0        0.032008    1.079798    0.000000
      2         17           0        0.032008   -0.601154   -0.000000
      3          1           0       -0.800208    1.581237    0.000000
 ---------------------------------------------------------------------
 Rotational constants (GHZ):         804.1231797          14.9639432          14.6905662
 Standard basis: SVP (5D, 7F)
 There are    29 symmetry adapted cartesian basis functions of A'  symmetry.
 There are    10 symmetry adapted cartesian basis functions of A"  symmetry.
 There are    27 symmetry adapted basis functions of A'  symmetry.
 There are    10 symmetry adapted basis functions of A"  symmetry.
    37 basis functions,    69 primitive gaussians,    39 cartesian basis functions
    13 alpha electrons       13 beta electrons
       nuclear repulsion energy        51.0225583626 Hartrees.
 NAtoms=    3 NActive=    3 NUniq=    3 SFac= 1.00D+00 NAtFMM=   60 NAOKFM=F Big=F
 Integral buffers will be    131072 words long.
 Raffenetti 2 integral format.
 Two-electron integral symmetry is turned on.
 Nuclear repulsion after empirical dispersion term =       51.0209589523 Hartrees.
 One-electron integrals computed using PRISM.
 NBasis=    37 RedAO= T EigKep=  3.57D-02  NBF=    27    10
 NBsUse=    37 1.00D-06 EigRej= -1.00D+00 NBFU=    27    10
 Initial guess from the checkpoint file:  "/tmp/Gau-13934.chk"
 B after Tr=     0.000000   -0.000000    0.000000
         Rot=    1.000000    0.000000   -0.000000    0.000000 Ang=   0.00 deg.
 Initial guess orbital symmetries:
       Occupied  (A') (A') (A') (A') (A') (A") (A') (A') (A') (A')
                 (A") (A') (A")
       Virtual   (A') (A') (A') (A') (A') (A") (A') (A') (A") (A')
                 (A") (A') (A") (A') (A') (A') (A") (A') (A') (A")
                 (A') (A") (A') (A')
 Keep R1 ints in memory in symmetry-blocked form, NReq=7153137.
 Requested convergence on RMS density matrix=1.00D-08 within 128 cycles.
 Requested convergence on MAX density matrix=1.00D-06.
 Requested convergence on             energy=1.00D-06.
 No special actions if energy rises.
 SCF Done:  E(RB3LYP) =  -535.751329185     A.U. after    1 cycles
            NFock=  1  Conv=0.31D-08     -V/T= 2.0025
 Calling FoFJK, ICntrl=      2127 FMM=F ISym2X=1 I1Cent= 0 IOpClX= 0 NMat=1 NMatS=1 NMatT=0.
 ***** Axes restored to original set *****
 -------------------------------------------------------------------
 Center     Atomic                   Forces (Hartrees/Bohr)
 Number     Number              X              Y              Z
 -------------------------------------------------------------------
      1        8          -0.004037407    0.033963991   -0.023278524
      2       17           0.006047744   -0.015205184    0.002836176
      3        1          -0.002010337   -0.018758807    0.020442348
 -------------------------------------------------------------------
 Cartesian Forces:  Max     0.033963991 RMS     0.017516290

 GradGradGradGradGradGradGradGradGradGradGradGradGradGradGradGradGradGrad
 Berny optimization.
 Internal  Forces:  Max     0.051074899 RMS     0.029585743
 Search for a saddle point.
 Step number  99 out of a maximum of  100
 All quantities printed in internal units (Hartrees-Bohrs-Radians)
 Swapping is turned off.
 Update second derivatives using D2CorX and points   99
 The second derivative matrix:
                          R1        R2        A1
           R1           0.28952
           R2          -0.00932   0.51782
           A1           0.01038  -0.00008   0.16262
 ITU=  0  0  0  0
     Eigenvalues ---    0.16177   0.28999   0.51820
 Eigenvectors required to have negative eigenvalues:
                          A1        R1        R2
   1                   -0.99670   0.08115   0.00191
 RFO step:  Lambda0=1.766406434D-01 Lambda= 0.00000000D+00.
 Linear search not attempted -- option 19 set.
 Iteration  1 RMS(Cart)=  0.00000004 RMS(Int)=  0.00000000
 ClnCor:  largest displacement from symmetrization is 2.09D-15 for atom     3.
 Variable       Old X    -DE/DX   Delta X   Delta X   Delta X     New X
                                 (Linear)    (Quad)   (Total)
    R1        3.17654   0.00416   0.00000  -0.00000  -0.00000   3.17654
    R2        1.83608   0.00010   0.00000   0.00000   0.00000   1.83608
    A1        2.11308  -0.05107   0.00000   0.00000   0.00000   2.11308
         Item               Value     Threshold  Converged?
 Maximum Force            0.051075     0.000450     NO 
 RMS     Force            0.029586     0.000300     NO 
 Maximum Displacement     0.000000     0.001800     YES
 RMS     Displacement     0.000000     0.001200     YES
 Predicted change in Energy= 2.656884D-09
 GradGradGradGradGradGradGradGradGradGradGradGradGradGradGradGradGradGrad

                          Input orientation:                          
 ---------------------------------------------------------------------
 Center     Atomic      Atomic             Coordinates (Angstroms)
 Number     Number       Type             X           Y           Z
 ---------------------------------------------------------------------
      1          8           0        3.432380   -4.613043    1.157558
      2         17           0        2.808213   -5.041066    2.658495
      3          1           0        4.011522   -5.217559    0.664425
 ---------------------------------------------------------------------
                    Distance matrix (angstroms):
                    1          2          3
     1  O    0.000000
     2  Cl   1.680952   0.000000
     3  H    0.971609   2.335683   0.000000
 Stoichiometry    ClHO
 Framework group  CS[SG(ClHO)]
 Deg. of freedom     3
 Full point group                 CS      NOp   2
 Largest Abelian subgroup         CS      NOp   2
 Largest concise Abelian subgroup C1      NOp   1
                         Standard orientation:                         
 ---------------------------------------------------------------------
 Center     Atomic      Atomic             Coordinates (Angstroms)
 Number     Number       Type             X           Y           Z
 ---------------------------------------------------------------------
      1          8           0        0.032008    1.079798   -0.000000
      2         17           0        0.032008   -0.601154    0.000000
      3          1           0       -0.800208    1.581237    0.000000
 ---------------------------------------------------------------------
 Rotational constants (GHZ):         804.1231904          14.9639433          14.6905663
 Standard basis: SVP (5D, 7F)
 There are    29 symmetry adapted cartesian basis functions of A'  symmetry.
 There are    10 symmetry adapted cartesian basis functions of A"  symmetry.
 There are    27 symmetry adapted basis functions of A'  symmetry.
 There are    10 symmetry adapted basis functions of A"  symmetry.
    37 basis functions,    69 primitive gaussians,    39 cartesian basis functions
    13 alpha electrons       13 beta electrons
       nuclear repulsion energy        51.0225584676 Hartrees.
 NAtoms=    3 NActive=    3 NUniq=    3 SFac= 1.00D+00 NAtFMM=   60 NAOKFM=F Big=F
 Integral buffers will be    131072 words long.
 Raffenetti 2 integral format.
 Two-electron integral symmetry is turned on.
 Nuclear repulsion after empirical dispersion term =       51.0209590573 Hartrees.
 One-electron integrals computed using PRISM.
 NBasis=    37 RedAO= T EigKep=  3.57D-02  NBF=    27    10
 NBsUse=    37 1.00D-06 EigRej= -1.00D+00 NBFU=    27    10
 Initial guess from the checkpoint file:  "/tmp/Gau-13934.chk"
 B after Tr=    -0.000000    0.000000   -0.000000
         Rot=    1.000000    0.000000   -0.000000    0.000000 Ang=   0.00 deg.
 Initial guess orbital symmetries:
       Occupied  (A') (A') (A') (A') (A') (A") (A') (A') (A') (A')
                 (A") (A') (A")
       Virtual   (A') (A') (A') (A') (A') (A") (A') (A') (A") (A')
                 (A") (A') (A") (A') (A') (A') (A") (A') (A') (A")
                 (A') (A") (A') (A')
 Keep R1 ints in memory in symmetry-blocked form, NReq=7153137.
 Requested convergence on RMS density matrix=1.00D-08 within 128 cycles.
 Requested convergence on MAX density matrix=1.00D-06.
 Requested convergence on             energy=1.00D-06.
 No special actions if energy rises.
 SCF Done:  E(RB3LYP) =  -535.751329182     A.U. after    1 cycles
            NFock=  1  Conv=0.59D-08     -V/T= 2.0025
 Calling FoFJK, ICntrl=      2127 FMM=F ISym2X=1 I1Cent= 0 IOpClX= 0 NMat=1 NMatS=1 NMatT=0.
 ***** Axes restored to original set *****
 -------------------------------------------------------------------
 Center     Atomic                   Forces (Hartrees/Bohr)
 Number     Number              X              Y              Z
 -------------------------------------------------------------------
      1        8          -0.004037362    0.033963978   -0.023278591
      2       17           0.006047745   -0.015205200    0.002836190
      3        1          -0.002010382   -0.018758777    0.020442401
 -------------------------------------------------------------------
 Cartesian Forces:  Max     0.033963978 RMS     0.017516301

 GradGradGradGradGradGradGradGradGradGradGradGradGradGradGradGradGradGrad
 Berny optimization.
 Internal  Forces:  Max     0.051074942 RMS     0.029585768
 Search for a saddle point.
 Step number 100 out of a maximum of  100
 All quantities printed in internal units (Hartrees-Bohrs-Radians)
 Swapping is turned off.
 Update second derivatives using D2CorX and points  100
 The second derivative matrix:
                          R1        R2        A1
           R1           0.28952
           R2          -0.00932   0.51782
           A1           0.01038  -0.00008   0.16262
 ITU=  0  0  0  0
     Eigenvalues ---    0.16177   0.28999   0.51820
 Eigenvectors required to have negative eigenvalues:
                          A1        R1        R2
   1                   -0.99670   0.08115   0.00191
 RFO step:  Lambda0=1.766406666D-01 Lambda= 0.00000000D+00.
 Linear search not attempted -- option 19 set.
 Iteration  1 RMS(Cart)=  0.00000006 RMS(Int)=  0.00000000
 ClnCor:  largest displacement from symmetrization is 3.47D-15 for atom     3.
 Variable       Old X    -DE/DX   Delta X   Delta X   Delta X     New X
                                 (Linear)    (Quad)   (Total)
    R1        3.17654   0.00416   0.00000   0.00000   0.00000   3.17654
    R2        1.83608   0.00010   0.00000  -0.00000  -0.00000   1.83608
    A1        2.11308  -0.05107   0.00000   0.00000   0.00000   2.11308
         Item               Value     Threshold  Converged?
 Maximum Force            0.051075     0.000450     NO 
 RMS     Force            0.029586     0.000300     NO 
 Maximum Displacement     0.000000     0.001800     YES
 RMS     Displacement     0.000000     0.001200     YES
 Predicted change in Energy= 4.769120D-09
 Optimization stopped.
    -- Number of steps exceeded,  NStep= 100
    -- Flag reset to prevent archiving.
                           ----------------------------
                           ! Non-Optimized Parameters !
                           ! (Angstroms and Degrees)  !
 --------------------------                            --------------------------
 ! Name  Definition              Value          Derivative Info.                !
 --------------------------------------------------------------------------------
 ! R1    R(1,2)                  1.681          -DE/DX =    0.0042              !
 ! R2    R(1,3)                  0.9716         -DE/DX =    0.0001              !
 ! A1    A(2,1,3)              121.0704         -DE/DX =   -0.0511              !
 --------------------------------------------------------------------------------
 GradGradGradGradGradGradGradGradGradGradGradGradGradGradGradGradGradGrad

                          Input orientation:                          
 ---------------------------------------------------------------------
 Center     Atomic      Atomic             Coordinates (Angstroms)
 Number     Number       Type             X           Y           Z
 ---------------------------------------------------------------------
      1          8           0        3.432380   -4.613043    1.157558
      2         17           0        2.808213   -5.041066    2.658495
      3          1           0        4.011522   -5.217559    0.664425
 ---------------------------------------------------------------------
                    Distance matrix (angstroms):
                    1          2          3
     1  O    0.000000
     2  Cl   1.680952   0.000000
     3  H    0.971609   2.335683   0.000000
 Stoichiometry    ClHO
 Framework group  CS[SG(ClHO)]
 Deg. of freedom     3
 Full point group                 CS      NOp   2
 Largest Abelian subgroup         CS      NOp   2
 Largest concise Abelian subgroup C1      NOp   1
                         Standard orientation:                         
 ---------------------------------------------------------------------
 Center     Atomic      Atomic             Coordinates (Angstroms)
 Number     Number       Type             X           Y           Z
 ---------------------------------------------------------------------
      1          8           0        0.032008    1.079798   -0.000000
      2         17           0        0.032008   -0.601154    0.000000
      3          1           0       -0.800208    1.581237   -0.000000
 ---------------------------------------------------------------------
 Rotational constants (GHZ):         804.1231904          14.9639433          14.6905663

 **********************************************************************

            Population analysis using the SCF density.

 **********************************************************************

 Orbital symmetries:
       Occupied  (A') (A') (A') (A') (A') (A") (A') (A') (A') (A')
                 (A") (A') (A")
       Virtual   (A') (A') (A') (A') (A') (A") (A') (A') (A") (A')
                 (A") (A') (A") (A') (A') (A') (A") (A') (A') (A")
                 (A') (A") (A') (A')
 The electronic state is 1-A'.
 Alpha  occ. eigenvalues -- -101.54161 -19.18131  -9.49348  -7.26714  -7.25039
 Alpha  occ. eigenvalues --   -7.25000  -1.04200  -0.79418  -0.53495  -0.41568
 Alpha  occ. eigenvalues --   -0.39882  -0.30150  -0.27110
 Alpha virt. eigenvalues --   -0.06220   0.07094   0.43916   0.54232   0.69697
 Alpha virt. eigenvalues --    0.70027   0.73408   0.76234   0.76277   0.84725
 Alpha virt. eigenvalues --    0.85062   0.95298   0.99505   1.07648   1.15524
 Alpha virt. eigenvalues --    1.22463   1.44639   1.67660   2.16298   2.62865
 Alpha virt. eigenvalues --    2.76364   2.92067   3.03560   3.63454
          Condensed to atoms (all electrons):
               1          2          3
     1  O    7.933801   0.104997   0.310161
     2  Cl   0.104997  16.782372  -0.020085
     3  H    0.310161  -0.020085   0.493681
 Mulliken charges:
               1
     1  O   -0.348959
     2  Cl   0.132717
     3  H    0.216243
 Sum of Mulliken charges =   0.00000
 Mulliken charges with hydrogens summed into heavy atoms:
               1
     1  O   -0.132717
     2  Cl   0.132717
 Electronic spatial extent (au):  <R**2>=            104.0502
 Charge=              0.0000 electrons
 Dipole moment (field-independent basis, Debye):
    X=             -1.5747    Y=              0.3622    Z=             -0.0000  Tot=              1.6158
 Quadrupole moment (field-independent basis, Debye-Ang):
   XX=            -16.9506   YY=            -14.9342   ZZ=            -18.5465
   XY=             -2.9055   XZ=              0.0000   YZ=             -0.0000
 Traceless Quadrupole moment (field-independent basis, Debye-Ang):
   XX=             -0.1401   YY=              1.8762   ZZ=             -1.7361
   XY=             -2.9055   XZ=              0.0000   YZ=             -0.0000
 Octapole moment (field-independent basis, Debye-Ang**2):
  XXX=             -1.6291  YYY=              3.9009  ZZZ=             -0.0000  XYY=             -4.3876
  XXY=              2.9622  XXZ=             -0.0000  XZZ=             -0.2234  YZZ=              0.6827
  YYZ=             -0.0000  XYZ=             -0.0000
 Hexadecapole moment (field-independent basis, Debye-Ang**3):
 XXXX=            -17.0100 YYYY=            -69.9692 ZZZZ=            -16.5551 XXXY=             -0.1477
 XXXZ=              0.0000 YYYX=             -5.8211 YYYZ=             -0.0000 ZZZX=              0.0000
 ZZZY=              0.0000 XXYY=            -14.2840 XXZZ=             -5.7637 YYZZ=            -17.7120
 XXYZ=             -0.0000 YYXZ=              0.0000 ZZXY=              0.5040
 N-N= 5.102095905731D+01 E-N=-1.375094560613D+03  KE= 5.343926997967D+02
 Symmetry A'   KE= 4.836426472003D+02
 Symmetry A"   KE= 5.075005259644D+01


    WHAT WE HAVE LEARNED
 IS LIKE A HANDFUL OF EARTH;
  WHAT WE HAVE YET TO LEARN
   IS LIKE THE WHOLE WORLD.

         -- AVVAYIAR
 Error termination request processed by link 9999.
 Error termination via Lnk1e in /share/apps/g16.a03/g16/l9999.exe at Thu Mar  6 16:41:10 2025.
 Job cpu time:       0 days  0 hours 12 minutes 59.8 seconds.
 Elapsed time:       0 days  0 hours  1 minutes 41.0 seconds.
 File lengths (MBytes):  RWF=      6 Int=      0 D2E=      0 Chk=      1 Scr=      1
