70
 energy: -143.147322795178 gnorm: 0.113876812250 xtb: 6.6.1 (8d0f1dd)
O    -2.75889340    -1.18187086     3.04099949
H    -3.46761276    -1.31463720     3.67300265
H    -2.92598607    -1.70662324     2.25610863
O    -1.85695380    -0.34905880    -0.87621727
H    -1.46163441    -0.71186659    -1.67084416
H    -2.46132969     0.30607513    -1.22958308
O    -0.19432123    -0.02955409     3.28504140
H     0.14987024    -0.62158034     2.61394098
H    -1.08204575    -0.34299268     3.46680994
O    -3.71823002    -2.81127411     0.76231952
H    -3.87726289    -2.31899055    -0.04496261
H    -2.84906325    -3.10366090     0.48232387
O     1.13274792    -2.58485778    -2.29815187
H     0.81988092    -1.68720920    -2.42337351
H     2.05213847    -2.72211282    -2.53314158
O    -1.04985737    -2.87217535    -0.19405693
H    -1.43328691    -2.00845499    -0.35625099
H    -0.44952094    -3.04690269    -0.92097232
O    -1.26519415    -2.38924458    -3.55676407
H    -0.60300172    -2.92587068    -3.11759320
H    -1.04730755    -2.36804390    -4.49025994
O    -3.68416618    -2.48647052    -2.11390160
H    -2.95058486    -2.60137737    -2.72052590
H    -4.13921181    -3.32651488    -2.19511407
O     0.27059091    -0.11923903    -2.96207362
H     1.06246305     0.35253503    -3.22609320
H    -0.51386458     0.39187327    -2.75535736
O    -3.73947678     0.53438404    -2.64621437
H    -4.25153837    -0.27389793    -2.58447686
H    -3.97803597     0.94459704    -3.47937288
O    -1.24886109     1.93694642    -2.61635111
Cl    -1.80918099     3.36491467    -3.35669597
H    -0.78138784     2.11197724    -1.79086981
O     1.55617478     4.78358710     3.04025787
Cl     3.13094784     4.56332009     3.65077971
H     1.14947472     3.90884028     3.04064759
O     0.78842286    -2.03068847     1.57873132
Cl     0.88228499    -3.45479854     2.50838944
H     0.12034913    -2.22648702     0.91095401
O     1.11602339     2.08230595     3.85143515
Cl     0.99629731     2.67945585     5.44210749
H     0.52419506     1.32323409     3.78711399
C     5.14511959    -0.37377613    -0.14434365
C     5.05715831     0.23309181     1.10253117
C     4.03724384     1.08994833     1.47030886
C     2.91844708     1.21326966     0.63966053
C     2.97338622     0.56845433    -0.59568984
C     4.07239492    -0.17580422    -1.00880097
H     5.83376073     0.02354103     1.82627985
H     3.90196385     1.53430850     2.45022667
C    -1.79687688     2.37015776     0.96750782
C    -1.83334059     3.65471410     0.41936284
C    -2.96535587     1.66713935     1.27455692
C    -3.08196648     4.18364840     0.11798026
H    -0.89720679     4.18928143     0.40332211
C    -4.18746567     2.17544560     0.86573576
C    -4.23141070     3.42212760     0.25915900
H    -3.16515813     5.22011827    -0.18226061
H    -5.09906115     1.65877392     1.13561562
Cl     6.60583837    -1.16937755    -0.63273667
Cl    -5.77416011     4.22651462     0.13463706
N     1.77538323     1.88405360     1.10116789
H     1.61021266     1.82544947     2.09365920
C     0.58626337     2.07585597     0.41558777
O     0.53934604     2.46166750    -0.72817033
N    -0.50902980     1.86629594     1.23086131
H    -0.39667789     1.25553412     2.02470961
H    -2.95498150     0.75015543     1.85460599
H     2.06964944     0.42099395    -1.16444315
Cl     4.12075380    -0.85601559    -2.60264016
