 Entering Gaussian System, Link 0=g16
 Input=ts.gjf
 Output=ts.log
 Initial command:
 /share/apps/g16.a03/g16/l1.exe "/tmp/Gau-24925.inp" -scrdir="/tmp/"
 Entering Link 1 = /share/apps/g16.a03/g16/l1.exe PID=     24927.
  
 Copyright (c) 1988,1990,1992,1993,1995,1998,2003,2009,2016,
            Gaussian, Inc.  All Rights Reserved.
  
 This is part of the Gaussian(R) 16 program.  It is based on
 the Gaussian(R) 09 system (copyright 2009, Gaussian, Inc.),
 the Gaussian(R) 03 system (copyright 2003, Gaussian, Inc.),
 the Gaussian(R) 98 system (copyright 1998, Gaussian, Inc.),
 the Gaussian(R) 94 system (copyright 1995, Gaussian, Inc.),
 the Gaussian 92(TM) system (copyright 1992, Gaussian, Inc.),
 the Gaussian 90(TM) system (copyright 1990, Gaussian, Inc.),
 the Gaussian 88(TM) system (copyright 1988, Gaussian, Inc.),
 the Gaussian 86(TM) system (copyright 1986, Carnegie Mellon
 University), and the Gaussian 82(TM) system (copyright 1983,
 Carnegie Mellon University). Gaussian is a federally registered
 trademark of Gaussian, Inc.
  
 This software contains proprietary and confidential information,
 including trade secrets, belonging to Gaussian, Inc.
  
 This software is provided under written license and may be
 used, copied, transmitted, or stored only in accord with that
 written license.
  
 The following legend is applicable only to US Government
 contracts under FAR:
  
                    RESTRICTED RIGHTS LEGEND
  
 Use, reproduction and disclosure by the US Government is
 subject to restrictions as set forth in subparagraphs (a)
 and (c) of the Commercial Computer Software - Restricted
 Rights clause in FAR 52.227-19.
  
 Gaussian, Inc.
 340 Quinnipiac St., Bldg. 40, Wallingford CT 06492
  
  
 ---------------------------------------------------------------
 Warning -- This program may not be used in any manner that
 competes with the business of Gaussian, Inc. or will provide
 assistance to any competitor of Gaussian, Inc.  The licensee
 of this program is prohibited from giving any competitor of
 Gaussian, Inc. access to this program.  By using this program,
 the user acknowledges that Gaussian, Inc. is engaged in the
 business of creating and licensing software in the field of
 computational chemistry and represents and warrants to the
 licensee that it is not a competitor of Gaussian, Inc. and that
 it will not use this program in any manner prohibited above.
 ---------------------------------------------------------------
  

 Cite this work as:
 Gaussian 16, Revision A.03,
 M. J. Frisch, G. W. Trucks, H. B. Schlegel, G. E. Scuseria, 
 M. A. Robb, J. R. Cheeseman, G. Scalmani, V. Barone, 
 G. A. Petersson, H. Nakatsuji, X. Li, M. Caricato, A. V. Marenich, 
 J. Bloino, B. G. Janesko, R. Gomperts, B. Mennucci, H. P. Hratchian, 
 J. V. Ortiz, A. F. Izmaylov, J. L. Sonnenberg, D. Williams-Young, 
 F. Ding, F. Lipparini, F. Egidi, J. Goings, B. Peng, A. Petrone, 
 T. Henderson, D. Ranasinghe, V. G. Zakrzewski, J. Gao, N. Rega, 
 G. Zheng, W. Liang, M. Hada, M. Ehara, K. Toyota, R. Fukuda, 
 J. Hasegawa, M. Ishida, T. Nakajima, Y. Honda, O. Kitao, H. Nakai, 
 T. Vreven, K. Throssell, J. A. Montgomery, Jr., J. E. Peralta, 
 F. Ogliaro, M. J. Bearpark, J. J. Heyd, E. N. Brothers, K. N. Kudin, 
 V. N. Staroverov, T. A. Keith, R. Kobayashi, J. Normand, 
 K. Raghavachari, A. P. Rendell, J. C. Burant, S. S. Iyengar, 
 J. Tomasi, M. Cossi, J. M. Millam, M. Klene, C. Adamo, R. Cammi, 
 J. W. Ochterski, R. L. Martin, K. Morokuma, O. Farkas, 
 J. B. Foresman, and D. J. Fox, Gaussian, Inc., Wallingford CT, 2016.
 
 ******************************************
 Gaussian 16:  EM64L-G16RevA.03 25-Dec-2016
                 6-Mar-2025 
 ******************************************
 %nproc=8
 Will use up to    8 processors via shared memory.
 %mem=4000MB
 --------------------------------------------------------------------
 #opt=(noeigen,calcfc,ts,recalc=5,maxcyc=200) freq B3LYP/SVP em=GD3BJ
 --------------------------------------------------------------------
 1/5=1,6=200,10=4,11=1,18=20,26=3,38=1,71=5/1,3;
 2/9=110,12=2,17=6,18=5,40=1/2;
 3/5=18,7=101,11=2,25=1,30=1,71=2,74=-5,124=41,140=1/1,2,3;
 4//1;
 5/5=2,38=5/2;
 8/6=4,10=90,11=11/1;
 11/6=1,8=1,9=11,15=111,16=1/1,2,10;
 10/6=1,13=1/2;
 6/7=2,8=2,9=2,10=2,28=1/1;
 7/10=1,18=20,25=1/1,2,3,16;
 1/5=1,6=200,10=4,11=1,18=20,26=3,71=5/3(2);
 2/9=110/2;
 99//99;
 2/9=110/2;
 3/5=18,7=101,11=2,25=1,30=1,71=1,74=-5,124=41/1,2,3;
 4/5=5,16=3,69=1/1;
 5/5=2,38=5/2;
 7//1,2,3,16;
 1/5=1,6=200,11=1,18=20,26=3,71=5/3(-5);
 2/9=110/2;
 6/7=2,8=2,9=2,10=2,19=2,28=1/1;
 99/9=1/99;
 ----------
 ts-294.gjf
 ----------
 Symbolic Z-matrix:
 Charge =  0 Multiplicity = 1
 O                    -2.57847  -0.54199  -0.87783 
 Cl                   -2.69333   0.97119  -1.43532 
 H                    -3.08607  -1.1552   -1.44287 
 

 GradGradGradGradGradGradGradGradGradGradGradGradGradGradGradGradGradGrad
 Berny optimization.
 Initialization pass.
                           ----------------------------
                           !    Initial Parameters    !
                           ! (Angstroms and Degrees)  !
 --------------------------                            --------------------------
 ! Name  Definition              Value          Derivative Info.                !
 --------------------------------------------------------------------------------
 ! R1    R(1,2)                  1.6167         calculate D2E/DX2 analytically  !
 ! R2    R(1,3)                  0.9762         calculate D2E/DX2 analytically  !
 ! A1    A(2,1,3)              110.5732         calculate D2E/DX2 analytically  !
 --------------------------------------------------------------------------------
 Trust Radius=3.00D-01 FncErr=1.00D-07 GrdErr=1.00D-06 EigMax=2.50D+02 EigMin=1.00D-04
 Number of steps in this run=    100 maximum allowed number of steps=    100.
 Search for a saddle point of order  1.
 GradGradGradGradGradGradGradGradGradGradGradGradGradGradGradGradGradGrad

                          Input orientation:                          
 ---------------------------------------------------------------------
 Center     Atomic      Atomic             Coordinates (Angstroms)
 Number     Number       Type             X           Y           Z
 ---------------------------------------------------------------------
      1          8           0       -2.578466   -0.541991   -0.877834
      2         17           0       -2.693331    0.971189   -1.435316
      3          1           0       -3.086074   -1.155196   -1.442868
 ---------------------------------------------------------------------
                    Distance matrix (angstroms):
                    1          2          3
     1  O    0.000000
     2  Cl   1.616693   0.000000
     3  H    0.976191   2.162363   0.000000
 Stoichiometry    ClHO
 Framework group  CS[SG(ClHO)]
 Deg. of freedom     3
 Full point group                 CS      NOp   2
 Largest Abelian subgroup         CS      NOp   2
 Largest concise Abelian subgroup C1      NOp   1
                         Standard orientation:                         
 ---------------------------------------------------------------------
 Center     Atomic      Atomic             Coordinates (Angstroms)
 Number     Number       Type             X           Y           Z
 ---------------------------------------------------------------------
      1          8           0        0.035151    1.043874   -0.000000
      2         17           0        0.035151   -0.572818    0.000000
      3          1           0       -0.878782    1.386912   -0.000000
 ---------------------------------------------------------------------
 Rotational constants (GHZ):         657.9338204          16.3940225          15.9954568
 Standard basis: SVP (5D, 7F)
 There are    29 symmetry adapted cartesian basis functions of A'  symmetry.
 There are    10 symmetry adapted cartesian basis functions of A"  symmetry.
 There are    27 symmetry adapted basis functions of A'  symmetry.
 There are    10 symmetry adapted basis functions of A"  symmetry.
    37 basis functions,    69 primitive gaussians,    39 cartesian basis functions
    13 alpha electrons       13 beta electrons
       nuclear repulsion energy        53.0125750366 Hartrees.
 NAtoms=    3 NActive=    3 NUniq=    3 SFac= 1.00D+00 NAtFMM=   60 NAOKFM=F Big=F
 Integral buffers will be    131072 words long.
 Raffenetti 2 integral format.
 Two-electron integral symmetry is turned on.
 Nuclear repulsion after empirical dispersion term =       53.0109587866 Hartrees.
 One-electron integrals computed using PRISM.
 NBasis=    37 RedAO= T EigKep=  3.01D-02  NBF=    27    10
 NBsUse=    37 1.00D-06 EigRej= -1.00D+00 NBFU=    27    10
 ExpMin= 1.22D-01 ExpMax= 1.04D+04 ExpMxC= 1.57D+03 IAcc=3 IRadAn=         5 AccDes= 0.00D+00
 Harris functional with IExCor=  402 and IRadAn=       5 diagonalized for initial guess.
 HarFok:  IExCor=  402 AccDes= 0.00D+00 IRadAn=         5 IDoV= 1 UseB2=F ITyADJ=14
 ICtDFT=  3500011 ScaDFX=  1.000000  1.000000  1.000000  1.000000
 FoFCou: FMM=F IPFlag=           0 FMFlag=      100000 FMFlg1=           0
         NFxFlg=           0 DoJE=T BraDBF=F KetDBF=T FulRan=T
         wScrn=  0.000000 ICntrl=       500 IOpCl=  0 I1Cent=   200000004 NGrid=           0
         NMat0=    1 NMatS0=      1 NMatT0=    0 NMatD0=    1 NMtDS0=    0 NMtDT0=    0
 Petite list used in FoFCou.
 Initial guess orbital symmetries:
       Occupied  (A') (A') (A') (A') (A') (A") (A') (A') (A') (A')
                 (A") (A') (A")
       Virtual   (A') (A') (A') (A') (A') (A") (A') (A') (A") (A')
                 (A") (A') (A") (A') (A') (A') (A") (A') (A') (A")
                 (A') (A") (A') (A')
 The electronic state of the initial guess is 1-A'.
 Keep R1 ints in memory in symmetry-blocked form, NReq=7153137.
 Requested convergence on RMS density matrix=1.00D-08 within 128 cycles.
 Requested convergence on MAX density matrix=1.00D-06.
 Requested convergence on             energy=1.00D-06.
 No special actions if energy rises.
 Integral accuracy reduced to 1.0D-05 until final iterations.
 Initial convergence to 1.0D-05 achieved.  Increase integral accuracy.
 SCF Done:  E(RB3LYP) =  -535.754374219     A.U. after   11 cycles
            NFock= 11  Conv=0.82D-08     -V/T= 2.0023
 DoSCS=F DFT=T ScalE2(SS,OS)=  1.000000  1.000000
 Range of M.O.s used for correlation:     1    37
 NBasis=    37 NAE=    13 NBE=    13 NFC=     0 NFV=     0
 NROrb=     37 NOA=    13 NOB=    13 NVA=    24 NVB=    24
 Symmetrizing basis deriv contribution to polar:
 IMax=3 JMax=2 DiffMx= 0.00D+00
 G2DrvN: will do     4 centers at a time, making    1 passes.
 Calling FoFCou, ICntrl=  3107 FMM=F I1Cent=   0 AccDes= 0.00D+00.
 End of G2Drv F.D. properties file   721 does not exist.
 End of G2Drv F.D. properties file   722 does not exist.
 End of G2Drv F.D. properties file   788 does not exist.
          IDoAtm=111
          Differentiating once with respect to nuclear coordinates.
 Keep R1 ints in memory in symmetry-blocked form, NReq=7127942.
          There are    12 degrees of freedom in the 1st order CPHF.  IDoFFX=6 NUNeed=     0.
      6 vectors produced by pass  0 Test12= 2.60D-15 8.33D-09 XBig12= 8.07D-02 1.90D-01.
 AX will form     6 AO Fock derivatives at one time.
      6 vectors produced by pass  1 Test12= 2.60D-15 8.33D-09 XBig12= 1.26D-02 4.88D-02.
      6 vectors produced by pass  2 Test12= 2.60D-15 8.33D-09 XBig12= 4.42D-04 6.34D-03.
      6 vectors produced by pass  3 Test12= 2.60D-15 8.33D-09 XBig12= 7.17D-06 8.56D-04.
      6 vectors produced by pass  4 Test12= 2.60D-15 8.33D-09 XBig12= 6.94D-08 7.61D-05.
      6 vectors produced by pass  5 Test12= 2.60D-15 8.33D-09 XBig12= 5.42D-10 8.16D-06.
      3 vectors produced by pass  6 Test12= 2.60D-15 8.33D-09 XBig12= 1.26D-12 3.90D-07.
 InvSVY:  IOpt=1 It=  1 EMax= 2.22D-16
 Solved reduced A of dimension    39 with     6 vectors.
 End of Minotr F.D. properties file   721 does not exist.
 End of Minotr F.D. properties file   722 does not exist.
 End of Minotr F.D. properties file   788 does not exist.

 **********************************************************************

            Population analysis using the SCF density.

 **********************************************************************

 Orbital symmetries:
       Occupied  (A') (A') (A') (A') (A') (A") (A') (A') (A') (A')
                 (A") (A') (A")
       Virtual   (A') (A') (A') (A') (A') (A") (A') (A') (A") (A')
                 (A") (A') (A") (A') (A') (A') (A") (A') (A') (A")
                 (A') (A") (A') (A')
 The electronic state is 1-A'.
 Alpha  occ. eigenvalues -- -101.53567 -19.18513  -9.48923  -7.26253  -7.24609
 Alpha  occ. eigenvalues --   -7.24565  -1.07160  -0.78453  -0.53921  -0.43517
 Alpha  occ. eigenvalues --   -0.41333  -0.30018  -0.26471
 Alpha virt. eigenvalues --   -0.03284   0.07003   0.44423   0.53714   0.70156
 Alpha virt. eigenvalues --    0.70517   0.73926   0.76151   0.76217   0.84455
 Alpha virt. eigenvalues --    0.85087   0.95448   0.99566   1.07058   1.15353
 Alpha virt. eigenvalues --    1.27836   1.43110   1.60718   2.15389   2.64472
 Alpha virt. eigenvalues --    2.85798   2.91009   3.03288   3.62695
          Condensed to atoms (all electrons):
               1          2          3
     1  O    7.929882   0.086895   0.313833
     2  Cl   0.086895  16.824747  -0.028371
     3  H    0.313833  -0.028371   0.500657
 Mulliken charges:
               1
     1  O   -0.330610
     2  Cl   0.116729
     3  H    0.213881
 Sum of Mulliken charges =   0.00000
 Mulliken charges with hydrogens summed into heavy atoms:
               1
     1  O   -0.116729
     2  Cl   0.116729
 APT charges:
               1
     1  O   -0.594249
     2  Cl   0.121369
     3  H    0.472880
 Sum of APT charges =   0.00000
 APT charges with hydrogens summed into heavy atoms:
               1
     1  O   -0.121369
     2  Cl   0.121369
 Electronic spatial extent (au):  <R**2>=             98.7631
 Charge=              0.0000 electrons
 Dipole moment (field-independent basis, Debye):
    X=             -1.6670    Y=              0.2637    Z=             -0.0000  Tot=              1.6877
 Quadrupole moment (field-independent basis, Debye-Ang):
   XX=            -16.5830   YY=            -16.0046   ZZ=            -18.4915
   XY=             -2.6918   XZ=              0.0000   YZ=              0.0000
 Traceless Quadrupole moment (field-independent basis, Debye-Ang):
   XX=              0.4434   YY=              1.0218   ZZ=             -1.4652
   XY=             -2.6918   XZ=              0.0000   YZ=              0.0000
 Octapole moment (field-independent basis, Debye-Ang**2):
  XXX=             -2.0344  YYY=              1.6490  ZZZ=             -0.0000  XYY=             -3.7907
  XXY=              3.1875  XXZ=             -0.0000  XZZ=             -0.2437  YZZ=              0.7499
  YYZ=             -0.0000  XYZ=              0.0000
 Hexadecapole moment (field-independent basis, Debye-Ang**3):
 XXXX=            -16.7698 YYYY=            -69.3985 ZZZZ=            -16.5043 XXXY=             -0.4139
 XXXZ=              0.0000 YYYX=             -3.9273 YYYZ=              0.0000 ZZZX=              0.0000
 ZZZY=              0.0000 XXYY=            -13.4978 XXZZ=             -5.7942 YYZZ=            -16.6283
 XXYZ=              0.0000 YYXZ=              0.0000 ZZXY=              0.4990
 N-N= 5.301095878662D+01 E-N=-1.379156439322D+03  KE= 5.345467197201D+02
 Symmetry A'   KE= 4.837737878292D+02
 Symmetry A"   KE= 5.077293189094D+01
  Exact polarizability:   0.000   0.000   0.000   0.000   0.000   0.000
 Approx polarizability:  14.094  -1.906  28.907   0.000  -0.000  10.317
 Calling FoFJK, ICntrl=    100147 FMM=F ISym2X=1 I1Cent= 0 IOpClX= 0 NMat=1 NMatS=1 NMatT=0.
 ***** Axes restored to original set *****
 -------------------------------------------------------------------
 Center     Atomic                   Forces (Hartrees/Bohr)
 Number     Number              X              Y              Z
 -------------------------------------------------------------------
      1        8           0.006123157   -0.056747947    0.023498184
      2       17          -0.006628592    0.047016494   -0.021688716
      3        1           0.000505436    0.009731453   -0.001809468
 -------------------------------------------------------------------
 Cartesian Forces:  Max     0.056747947 RMS     0.027147964
 FormGI is forming the generalized inverse of G from B-inverse, IUseBI=4.

 GradGradGradGradGradGradGradGradGradGradGradGradGradGradGradGradGradGrad
 Berny optimization.
 Internal  Forces:  Max     0.051956031 RMS     0.031440334
 Search for a saddle point.
 Step number   1 out of a maximum of  100
 All quantities printed in internal units (Hartrees-Bohrs-Radians)
 Swapping is turned off.
 Second derivative matrix not updated -- analytic derivatives used.
 The second derivative matrix:
                          R1        R2        A1
           R1           0.38982
           R2          -0.00873   0.48610
           A1           0.06123  -0.00084   0.18643
 ITU=  0
     Eigenvalues ---    0.16941   0.40590   0.48703
 Eigenvectors required to have negative eigenvalues:
                          A1        R1        R2
   1                    0.96345  -0.26784  -0.00482
 RFO step:  Lambda0=1.741556950D-01 Lambda=-5.16140184D-03.
 Linear search not attempted -- option 19 set.
 Iteration  1 RMS(Cart)=  0.11159579 RMS(Int)=  0.00477797
 Iteration  2 RMS(Cart)=  0.00371371 RMS(Int)=  0.00000211
 Iteration  3 RMS(Cart)=  0.00000260 RMS(Int)=  0.00000000
 Iteration  4 RMS(Cart)=  0.00000000 RMS(Int)=  0.00000000
 ClnCor:  largest displacement from symmetrization is 2.22D-15 for atom     3.
 Variable       Old X    -DE/DX   Delta X   Delta X   Delta X     New X
                                 (Linear)    (Quad)   (Total)
    R1        3.05511   0.05196   0.00000   0.07732   0.07732   3.13243
    R2        1.84473  -0.00533   0.00000  -0.00971  -0.00971   1.83502
    A1        1.92987  -0.01542   0.00000   0.13735   0.13735   2.06721
         Item               Value     Threshold  Converged?
 Maximum Force            0.051956     0.000450     NO 
 RMS     Force            0.031440     0.000300     NO 
 Maximum Displacement     0.116374     0.001800     NO 
 RMS     Displacement     0.110434     0.001200     NO 
 Predicted change in Energy= 1.652873D-03
 GradGradGradGradGradGradGradGradGradGradGradGradGradGradGradGradGradGrad

                          Input orientation:                          
 ---------------------------------------------------------------------
 Center     Atomic      Atomic             Coordinates (Angstroms)
 Number     Number       Type             X           Y           Z
 ---------------------------------------------------------------------
      1          8           0       -2.601942   -0.541730   -0.911409
      2         17           0       -2.675141    1.032510   -1.425302
      3          1           0       -3.080787   -1.216778   -1.419307
 ---------------------------------------------------------------------
                    Distance matrix (angstroms):
                    1          2          3
     1  O    0.000000
     2  Cl   1.657611   0.000000
     3  H    0.971053   2.285581   0.000000
 Stoichiometry    ClHO
 Framework group  CS[SG(ClHO)]
 Deg. of freedom     3
 Full point group                 CS      NOp   2
 Largest Abelian subgroup         CS      NOp   2
 Largest concise Abelian subgroup C1      NOp   1
                         Standard orientation:                         
 ---------------------------------------------------------------------
 Center     Atomic      Atomic             Coordinates (Angstroms)
 Number     Number       Type             X           Y           Z
 ---------------------------------------------------------------------
      1          8           0        0.032840    1.066035    0.000000
      2         17           0        0.032840   -0.591577   -0.000000
      3          1           0       -0.821001    1.528526    0.000000
 ---------------------------------------------------------------------
 Rotational constants (GHZ):         761.5889255          15.4351774          15.1285657
 Standard basis: SVP (5D, 7F)
 There are    29 symmetry adapted cartesian basis functions of A'  symmetry.
 There are    10 symmetry adapted cartesian basis functions of A"  symmetry.
 There are    27 symmetry adapted basis functions of A'  symmetry.
 There are    10 symmetry adapted basis functions of A"  symmetry.
    37 basis functions,    69 primitive gaussians,    39 cartesian basis functions
    13 alpha electrons       13 beta electrons
       nuclear repulsion energy        51.7123564045 Hartrees.
 NAtoms=    3 NActive=    3 NUniq=    3 SFac= 1.00D+00 NAtFMM=   60 NAOKFM=F Big=F
 Integral buffers will be    131072 words long.
 Raffenetti 2 integral format.
 Two-electron integral symmetry is turned on.
 Nuclear repulsion after empirical dispersion term =       51.7107512478 Hartrees.
 One-electron integrals computed using PRISM.
 NBasis=    37 RedAO= T EigKep=  3.37D-02  NBF=    27    10
 NBsUse=    37 1.00D-06 EigRej= -1.00D+00 NBFU=    27    10
 Initial guess from the checkpoint file:  "/tmp/Gau-24927.chk"
 B after Tr=    -0.000000   -0.000000   -0.000000
         Rot=    0.999982   -0.000000   -0.000000    0.006067 Ang=   0.70 deg.
 Initial guess orbital symmetries:
       Occupied  (A') (A') (A') (A') (A') (A") (A') (A') (A') (A')
                 (A") (A') (A")
       Virtual   (A') (A') (A') (A') (A') (A") (A') (A') (A") (A')
                 (A") (A') (A") (A') (A') (A') (A") (A') (A') (A")
                 (A') (A") (A') (A')
 ExpMin= 1.22D-01 ExpMax= 1.04D+04 ExpMxC= 1.57D+03 IAcc=2 IRadAn=         4 AccDes= 0.00D+00
 Harris functional with IExCor=  402 and IRadAn=       4 diagonalized for initial guess.
 HarFok:  IExCor=  402 AccDes= 0.00D+00 IRadAn=         4 IDoV= 1 UseB2=F ITyADJ=14
 ICtDFT=  3500011 ScaDFX=  1.000000  1.000000  1.000000  1.000000
 FoFCou: FMM=F IPFlag=           0 FMFlag=      100000 FMFlg1=           0
         NFxFlg=           0 DoJE=T BraDBF=F KetDBF=T FulRan=T
         wScrn=  0.000000 ICntrl=       500 IOpCl=  0 I1Cent=   200000004 NGrid=           0
         NMat0=    1 NMatS0=      1 NMatT0=    0 NMatD0=    1 NMtDS0=    0 NMtDT0=    0
 Petite list used in FoFCou.
 Keep R1 ints in memory in symmetry-blocked form, NReq=7153137.
 Requested convergence on RMS density matrix=1.00D-08 within 128 cycles.
 Requested convergence on MAX density matrix=1.00D-06.
 Requested convergence on             energy=1.00D-06.
 No special actions if energy rises.
 Integral accuracy reduced to 1.0D-05 until final iterations.
 Initial convergence to 1.0D-05 achieved.  Increase integral accuracy.
 SCF Done:  E(RB3LYP) =  -535.752994891     A.U. after   11 cycles
            NFock= 11  Conv=0.37D-08     -V/T= 2.0025
 Calling FoFJK, ICntrl=      2127 FMM=F ISym2X=1 I1Cent= 0 IOpClX= 0 NMat=1 NMatS=1 NMatT=0.
 ***** Axes restored to original set *****
 -------------------------------------------------------------------
 Center     Atomic                   Forces (Hartrees/Bohr)
 Number     Number              X              Y              Z
 -------------------------------------------------------------------
      1        8           0.016239655   -0.029760421    0.030918828
      2       17          -0.008762977    0.013563579   -0.016034967
      3        1          -0.007476678    0.016196841   -0.014883861
 -------------------------------------------------------------------
 Cartesian Forces:  Max     0.030918828 RMS     0.018746944

 GradGradGradGradGradGradGradGradGradGradGradGradGradGradGradGradGradGrad
 Berny optimization.
 FormGI is forming the generalized inverse of G from B-inverse, IUseBI=4.
 Internal  Forces:  Max     0.042630440 RMS     0.026771153
 Search for a saddle point.
 Step number   2 out of a maximum of  100
 All quantities printed in internal units (Hartrees-Bohrs-Radians)
 Swapping is turned off.
 Update second derivatives using D2CorX and points    1    2
 The second derivative matrix:
                          R1        R2        A1
           R1           0.36156
           R2          -0.00868   0.48613
           A1           0.04131  -0.00108   0.17481
 ITU=  0  0
     Eigenvalues ---    0.16607   0.36964   0.48678
 Eigenvectors required to have negative eigenvalues:
                          A1        R1        R2
   1                    0.97837  -0.20686  -0.00230
 RFO step:  Lambda0=1.777131681D-01 Lambda=-2.20123451D-04.
 Linear search not attempted -- option 19 set.
 Iteration  1 RMS(Cart)=  0.02407321 RMS(Int)=  0.00021757
 Iteration  2 RMS(Cart)=  0.00016620 RMS(Int)=  0.00000001
 Iteration  3 RMS(Cart)=  0.00000001 RMS(Int)=  0.00000000
 ClnCor:  largest displacement from symmetrization is 2.43D-15 for atom     3.
 Variable       Old X    -DE/DX   Delta X   Delta X   Delta X     New X
                                 (Linear)    (Quad)   (Total)
    R1        3.13243   0.01824   0.00000   0.01881   0.01881   3.15124
    R2        1.83502   0.00021   0.00000   0.00060   0.00060   1.83563
    A1        2.06721  -0.04263   0.00000   0.02890   0.02890   2.09612
         Item               Value     Threshold  Converged?
 Maximum Force            0.042630     0.000450     NO 
 RMS     Force            0.026771     0.000300     NO 
 Maximum Displacement     0.025738     0.001800     NO 
 RMS     Displacement     0.024031     0.001200     NO 
 Predicted change in Energy= 1.048416D-03
 GradGradGradGradGradGradGradGradGradGradGradGradGradGradGradGradGradGrad

                          Input orientation:                          
 ---------------------------------------------------------------------
 Center     Atomic      Atomic             Coordinates (Angstroms)
 Number     Number       Type             X           Y           Z
 ---------------------------------------------------------------------
      1          8           0       -2.606852   -0.541858   -0.918384
      2         17           0       -2.671238    1.046130   -1.423274
      3          1           0       -3.079780   -1.230270   -1.414360
 ---------------------------------------------------------------------
                    Distance matrix (angstroms):
                    1          2          3
     1  O    0.000000
     2  Cl   1.667563   0.000000
     3  H    0.971371   2.312786   0.000000
 Stoichiometry    ClHO
 Framework group  CS[SG(ClHO)]
 Deg. of freedom     3
 Full point group                 CS      NOp   2
 Largest Abelian subgroup         CS      NOp   2
 Largest concise Abelian subgroup C1      NOp   1
                         Standard orientation:                         
 ---------------------------------------------------------------------
 Center     Atomic      Atomic             Coordinates (Angstroms)
 Number     Number       Type             X           Y           Z
 ---------------------------------------------------------------------
      1          8           0        0.032323    1.071594    0.000000
      2         17           0        0.032323   -0.595969   -0.000000
      3          1           0       -0.808072    1.558728    0.000000
 ---------------------------------------------------------------------
 Rotational constants (GHZ):         787.7906505          15.2198530          14.9313836
 Standard basis: SVP (5D, 7F)
 There are    29 symmetry adapted cartesian basis functions of A'  symmetry.
 There are    10 symmetry adapted cartesian basis functions of A"  symmetry.
 There are    27 symmetry adapted basis functions of A'  symmetry.
 There are    10 symmetry adapted basis functions of A"  symmetry.
    37 basis functions,    69 primitive gaussians,    39 cartesian basis functions
    13 alpha electrons       13 beta electrons
       nuclear repulsion energy        51.4055275389 Hartrees.
 NAtoms=    3 NActive=    3 NUniq=    3 SFac= 1.00D+00 NAtFMM=   60 NAOKFM=F Big=F
 Integral buffers will be    131072 words long.
 Raffenetti 2 integral format.
 Two-electron integral symmetry is turned on.
 Nuclear repulsion after empirical dispersion term =       51.4039253629 Hartrees.
 One-electron integrals computed using PRISM.
 NBasis=    37 RedAO= T EigKep=  3.46D-02  NBF=    27    10
 NBsUse=    37 1.00D-06 EigRej= -1.00D+00 NBFU=    27    10
 Initial guess from the checkpoint file:  "/tmp/Gau-24927.chk"
 B after Tr=     0.000000   -0.000000    0.000000
         Rot=    0.999999   -0.000000    0.000000    0.001273 Ang=   0.15 deg.
 Initial guess orbital symmetries:
       Occupied  (A') (A') (A') (A') (A') (A") (A') (A') (A') (A')
                 (A") (A') (A")
       Virtual   (A') (A') (A') (A') (A') (A") (A') (A') (A") (A')
                 (A") (A') (A") (A') (A') (A') (A") (A') (A') (A")
                 (A') (A") (A') (A')
 ExpMin= 1.22D-01 ExpMax= 1.04D+04 ExpMxC= 1.57D+03 IAcc=2 IRadAn=         4 AccDes= 0.00D+00
 Harris functional with IExCor=  402 and IRadAn=       4 diagonalized for initial guess.
 HarFok:  IExCor=  402 AccDes= 0.00D+00 IRadAn=         4 IDoV= 1 UseB2=F ITyADJ=14
 ICtDFT=  3500011 ScaDFX=  1.000000  1.000000  1.000000  1.000000
 FoFCou: FMM=F IPFlag=           0 FMFlag=      100000 FMFlg1=           0
         NFxFlg=           0 DoJE=T BraDBF=F KetDBF=T FulRan=T
         wScrn=  0.000000 ICntrl=       500 IOpCl=  0 I1Cent=   200000004 NGrid=           0
         NMat0=    1 NMatS0=      1 NMatT0=    0 NMatD0=    1 NMtDS0=    0 NMtDT0=    0
 Petite list used in FoFCou.
 Keep R1 ints in memory in symmetry-blocked form, NReq=7153137.
 Requested convergence on RMS density matrix=1.00D-08 within 128 cycles.
 Requested convergence on MAX density matrix=1.00D-06.
 Requested convergence on             energy=1.00D-06.
 No special actions if energy rises.
 Integral accuracy reduced to 1.0D-05 until final iterations.
 Initial convergence to 1.0D-05 achieved.  Increase integral accuracy.
 SCF Done:  E(RB3LYP) =  -535.751968813     A.U. after   11 cycles
            NFock= 11  Conv=0.25D-08     -V/T= 2.0025
 Calling FoFJK, ICntrl=      2127 FMM=F ISym2X=1 I1Cent= 0 IOpClX= 0 NMat=1 NMatS=1 NMatT=0.
 ***** Axes restored to original set *****
 -------------------------------------------------------------------
 Center     Atomic                   Forces (Hartrees/Bohr)
 Number     Number              X              Y              Z
 -------------------------------------------------------------------
      1        8           0.017829615   -0.024890597    0.031921683
      2       17          -0.009304892    0.007009206   -0.015103836
      3        1          -0.008524722    0.017881391   -0.016817847
 -------------------------------------------------------------------
 Cartesian Forces:  Max     0.031921683 RMS     0.018243787

 GradGradGradGradGradGradGradGradGradGradGradGradGradGradGradGradGradGrad
 Berny optimization.
 FormGI is forming the generalized inverse of G from B-inverse, IUseBI=4.
 Internal  Forces:  Max     0.047699473 RMS     0.028342946
 Search for a saddle point.
 Step number   3 out of a maximum of  100
 All quantities printed in internal units (Hartrees-Bohrs-Radians)
 Swapping is turned off.
 Update second derivatives using D2CorX and points    1    2    3
 The second derivative matrix:
                          R1        R2        A1
           R1           0.32461
           R2          -0.00743   0.48610
           A1           0.01842  -0.00019   0.16340
 ITU=  0  0  0
     Eigenvalues ---    0.16132   0.32635   0.48644
 Eigenvectors required to have negative eigenvalues:
                          A1        R1        R2
   1                    0.99369  -0.11219  -0.00197
 RFO step:  Lambda0=1.748782237D-01 Lambda=-1.16986715D-04.
 Linear search not attempted -- option 19 set.
 Iteration  1 RMS(Cart)=  0.01830321 RMS(Int)=  0.00011332
 Iteration  2 RMS(Cart)=  0.00008606 RMS(Int)=  0.00000000
 Iteration  3 RMS(Cart)=  0.00000000 RMS(Int)=  0.00000000
 ClnCor:  largest displacement from symmetrization is 1.83D-15 for atom     1.
 Variable       Old X    -DE/DX   Delta X   Delta X   Delta X     New X
                                 (Linear)    (Quad)   (Total)
    R1        3.15124   0.01161   0.00000   0.01668   0.01668   3.16792
    R2        1.83563   0.00006   0.00000   0.00019   0.00019   1.83581
    A1        2.09612  -0.04770   0.00000   0.02093   0.02093   2.11705
         Item               Value     Threshold  Converged?
 Maximum Force            0.047699     0.000450     NO 
 RMS     Force            0.028343     0.000300     NO 
 Maximum Displacement     0.020374     0.001800     NO 
 RMS     Displacement     0.018284     0.001200     NO 
 Predicted change in Energy= 8.920046D-04
 GradGradGradGradGradGradGradGradGradGradGradGradGradGradGradGradGradGrad

                          Input orientation:                          
 ---------------------------------------------------------------------
 Center     Atomic      Atomic             Coordinates (Angstroms)
 Number     Number       Type             X           Y           Z
 ---------------------------------------------------------------------
      1          8           0       -2.610505   -0.542585   -0.923408
      2         17           0       -2.668350    1.056911   -1.421955
      3          1           0       -3.079016   -1.240325   -1.410655
 ---------------------------------------------------------------------
                    Distance matrix (angstroms):
                    1          2          3
     1  O    0.000000
     2  Cl   1.676390   0.000000
     3  H    0.971470   2.333681   0.000000
 Stoichiometry    ClHO
 Framework group  CS[SG(ClHO)]
 Deg. of freedom     3
 Full point group                 CS      NOp   2
 Largest Abelian subgroup         CS      NOp   2
 Largest concise Abelian subgroup C1      NOp   1
                         Standard orientation:                         
 ---------------------------------------------------------------------
 Center     Atomic      Atomic             Coordinates (Angstroms)
 Number     Number       Type             X           Y           Z
 ---------------------------------------------------------------------
      1          8           0        0.031927    1.076691    0.000000
      2         17           0        0.031927   -0.599699   -0.000000
      3          1           0       -0.798174    1.581356    0.000000
 ---------------------------------------------------------------------
 Rotational constants (GHZ):         808.5952899          15.0386625          14.7640729
 Standard basis: SVP (5D, 7F)
 There are    29 symmetry adapted cartesian basis functions of A'  symmetry.
 There are    10 symmetry adapted cartesian basis functions of A"  symmetry.
 There are    27 symmetry adapted basis functions of A'  symmetry.
 There are    10 symmetry adapted basis functions of A"  symmetry.
    37 basis functions,    69 primitive gaussians,    39 cartesian basis functions
    13 alpha electrons       13 beta electrons
       nuclear repulsion energy        51.1430115594 Hartrees.
 NAtoms=    3 NActive=    3 NUniq=    3 SFac= 1.00D+00 NAtFMM=   60 NAOKFM=F Big=F
 Integral buffers will be    131072 words long.
 Raffenetti 2 integral format.
 Two-electron integral symmetry is turned on.
 Nuclear repulsion after empirical dispersion term =       51.1414118326 Hartrees.
 One-electron integrals computed using PRISM.
 NBasis=    37 RedAO= T EigKep=  3.54D-02  NBF=    27    10
 NBsUse=    37 1.00D-06 EigRej= -1.00D+00 NBFU=    27    10
 Initial guess from the checkpoint file:  "/tmp/Gau-24927.chk"
 B after Tr=     0.000000   -0.000000   -0.000000
         Rot=    1.000000   -0.000000    0.000000    0.000951 Ang=   0.11 deg.
 Initial guess orbital symmetries:
       Occupied  (A') (A') (A') (A') (A') (A") (A') (A') (A') (A')
                 (A") (A') (A")
       Virtual   (A') (A') (A') (A') (A') (A") (A') (A') (A") (A')
                 (A") (A') (A") (A') (A') (A') (A") (A') (A') (A")
                 (A') (A") (A') (A')
 ExpMin= 1.22D-01 ExpMax= 1.04D+04 ExpMxC= 1.57D+03 IAcc=2 IRadAn=         4 AccDes= 0.00D+00
 Harris functional with IExCor=  402 and IRadAn=       4 diagonalized for initial guess.
 HarFok:  IExCor=  402 AccDes= 0.00D+00 IRadAn=         4 IDoV= 1 UseB2=F ITyADJ=14
 ICtDFT=  3500011 ScaDFX=  1.000000  1.000000  1.000000  1.000000
 FoFCou: FMM=F IPFlag=           0 FMFlag=      100000 FMFlg1=           0
         NFxFlg=           0 DoJE=T BraDBF=F KetDBF=T FulRan=T
         wScrn=  0.000000 ICntrl=       500 IOpCl=  0 I1Cent=   200000004 NGrid=           0
         NMat0=    1 NMatS0=      1 NMatT0=    0 NMatD0=    1 NMtDS0=    0 NMtDT0=    0
 Petite list used in FoFCou.
 Keep R1 ints in memory in symmetry-blocked form, NReq=7153137.
 Requested convergence on RMS density matrix=1.00D-08 within 128 cycles.
 Requested convergence on MAX density matrix=1.00D-06.
 Requested convergence on             energy=1.00D-06.
 No special actions if energy rises.
 Integral accuracy reduced to 1.0D-05 until final iterations.
 Initial convergence to 1.0D-05 achieved.  Increase integral accuracy.
 SCF Done:  E(RB3LYP) =  -535.751081054     A.U. after   10 cycles
            NFock= 10  Conv=0.73D-08     -V/T= 2.0025
 Calling FoFJK, ICntrl=      2127 FMM=F ISym2X=1 I1Cent= 0 IOpClX= 0 NMat=1 NMatS=1 NMatT=0.
 ***** Axes restored to original set *****
 -------------------------------------------------------------------
 Center     Atomic                   Forces (Hartrees/Bohr)
 Number     Number              X              Y              Z
 -------------------------------------------------------------------
      1        8           0.019079376   -0.020684511    0.032611590
      2       17          -0.009698948    0.001759350   -0.014300934
      3        1          -0.009380428    0.018925162   -0.018310656
 -------------------------------------------------------------------
 Cartesian Forces:  Max     0.032611590 RMS     0.018069321

 GradGradGradGradGradGradGradGradGradGradGradGradGradGradGradGradGradGrad
 Berny optimization.
 FormGI is forming the generalized inverse of G from B-inverse, IUseBI=4.
 Internal  Forces:  Max     0.051318039 RMS     0.029848626
 Search for a saddle point.
 Step number   4 out of a maximum of  100
 All quantities printed in internal units (Hartrees-Bohrs-Radians)
 Swapping is turned off.
 Update second derivatives using D2CorX and points    1    2    3    4
 The second derivative matrix:
                          R1        R2        A1
           R1           0.30522
           R2          -0.00798   0.48612
           A1           0.01199  -0.00038   0.16335
 ITU=  0  0  0  0
     Eigenvalues ---    0.16234   0.30587   0.48648
 Eigenvectors required to have negative eigenvalues:
                          A1        R1        R2
   1                    0.99649  -0.08370  -0.00090
 RFO step:  Lambda0=1.773865149D-01 Lambda=-1.24372520D-05.
 Linear search not attempted -- option 19 set.
 Iteration  1 RMS(Cart)=  0.00614640 RMS(Int)=  0.00001239
 Iteration  2 RMS(Cart)=  0.00000934 RMS(Int)=  0.00000000
 Iteration  3 RMS(Cart)=  0.00000000 RMS(Int)=  0.00000000
 ClnCor:  largest displacement from symmetrization is 2.81D-15 for atom     3.
 Variable       Old X    -DE/DX   Delta X   Delta X   Delta X     New X
                                 (Linear)    (Quad)   (Total)
    R1        3.16792   0.00627   0.00000   0.00582   0.00582   3.17373
    R2        1.83581   0.00012   0.00000   0.00024   0.00024   1.83605
    A1        2.11705  -0.05132   0.00000   0.00689   0.00689   2.12393
         Item               Value     Threshold  Converged?
 Maximum Force            0.051318     0.000450     NO 
 RMS     Force            0.029849     0.000300     NO 
 Maximum Displacement     0.006924     0.001800     NO 
 RMS     Displacement     0.006145     0.001200     NO 
 Predicted change in Energy= 3.264992D-04
 GradGradGradGradGradGradGradGradGradGradGradGradGradGradGradGradGradGrad

                          Input orientation:                          
 ---------------------------------------------------------------------
 Center     Atomic      Atomic             Coordinates (Angstroms)
 Number     Number       Type             X           Y           Z
 ---------------------------------------------------------------------
      1          8           0       -2.611700   -0.542860   -0.925043
      2         17           0       -2.667388    1.060575   -1.421535
      3          1           0       -3.078782   -1.243713   -1.409440
 ---------------------------------------------------------------------
                    Distance matrix (angstroms):
                    1          2          3
     1  O    0.000000
     2  Cl   1.679467   0.000000
     3  H    0.971597   2.340756   0.000000
 Stoichiometry    ClHO
 Framework group  CS[SG(ClHO)]
 Deg. of freedom     3
 Full point group                 CS      NOp   2
 Largest Abelian subgroup         CS      NOp   2
 Largest concise Abelian subgroup C1      NOp   1
                         Standard orientation:                         
 ---------------------------------------------------------------------
 Center     Atomic      Atomic             Coordinates (Angstroms)
 Number     Number       Type             X           Y           Z
 ---------------------------------------------------------------------
      1          8           0        0.031797    1.078481   -0.000000
      2         17           0        0.031797   -0.600986    0.000000
      3          1           0       -0.794917    1.588919    0.000000
 ---------------------------------------------------------------------
 Rotational constants (GHZ):         815.6102191          14.9767052          14.7066532
 Standard basis: SVP (5D, 7F)
 There are    29 symmetry adapted cartesian basis functions of A'  symmetry.
 There are    10 symmetry adapted cartesian basis functions of A"  symmetry.
 There are    27 symmetry adapted basis functions of A'  symmetry.
 There are    10 symmetry adapted basis functions of A"  symmetry.
    37 basis functions,    69 primitive gaussians,    39 cartesian basis functions
    13 alpha electrons       13 beta electrons
       nuclear repulsion energy        51.0521249588 Hartrees.
 NAtoms=    3 NActive=    3 NUniq=    3 SFac= 1.00D+00 NAtFMM=   60 NAOKFM=F Big=F
 Integral buffers will be    131072 words long.
 Raffenetti 2 integral format.
 Two-electron integral symmetry is turned on.
 Nuclear repulsion after empirical dispersion term =       51.0505260890 Hartrees.
 One-electron integrals computed using PRISM.
 NBasis=    37 RedAO= T EigKep=  3.57D-02  NBF=    27    10
 NBsUse=    37 1.00D-06 EigRej= -1.00D+00 NBFU=    27    10
 Initial guess from the checkpoint file:  "/tmp/Gau-24927.chk"
 B after Tr=     0.000000    0.000000    0.000000
         Rot=    1.000000    0.000000   -0.000000    0.000313 Ang=   0.04 deg.
 Initial guess orbital symmetries:
       Occupied  (A') (A') (A') (A') (A') (A") (A') (A') (A') (A')
                 (A") (A') (A")
       Virtual   (A') (A') (A') (A') (A') (A") (A') (A') (A") (A')
                 (A") (A') (A") (A') (A') (A') (A") (A') (A') (A")
                 (A') (A") (A') (A')
 Keep R1 ints in memory in symmetry-blocked form, NReq=7153137.
 Requested convergence on RMS density matrix=1.00D-08 within 128 cycles.
 Requested convergence on MAX density matrix=1.00D-06.
 Requested convergence on             energy=1.00D-06.
 No special actions if energy rises.
 SCF Done:  E(RB3LYP) =  -535.750754856     A.U. after    8 cycles
            NFock=  8  Conv=0.43D-08     -V/T= 2.0025
 Calling FoFJK, ICntrl=      2127 FMM=F ISym2X=1 I1Cent= 0 IOpClX= 0 NMat=1 NMatS=1 NMatT=0.
 ***** Axes restored to original set *****
 -------------------------------------------------------------------
 Center     Atomic                   Forces (Hartrees/Bohr)
 Number     Number              X              Y              Z
 -------------------------------------------------------------------
      1        8           0.019452525   -0.019332239    0.032792499
      2       17          -0.009831613    0.000019999   -0.014037930
      3        1          -0.009620912    0.019312239   -0.018754570
 -------------------------------------------------------------------
 Cartesian Forces:  Max     0.032792499 RMS     0.018069210

 GradGradGradGradGradGradGradGradGradGradGradGradGradGradGradGradGradGrad
 Berny optimization.
 FormGI is forming the generalized inverse of G from B-inverse, IUseBI=4.
 Internal  Forces:  Max     0.052488520 RMS     0.030415194
 Search for a saddle point.
 Step number   5 out of a maximum of  100
 All quantities printed in internal units (Hartrees-Bohrs-Radians)
 Swapping is turned off.
 Update second derivatives using D2CorX and points    2    3    4    5
 The second derivative matrix:
                          R1        R2        A1
           R1           0.29596
           R2          -0.00786   0.48614
           A1           0.00755  -0.00011   0.16357
 ITU=  0  0  0  0
     Eigenvalues ---    0.16314   0.29606   0.48647
 Eigenvectors required to have negative eigenvalues:
                          A1        R1        R2
   1                    0.99838  -0.05684  -0.00105
 RFO step:  Lambda0=1.786612896D-01 Lambda=-7.63907633D-06.
 Linear search not attempted -- option 19 set.
 Iteration  1 RMS(Cart)=  0.00484208 RMS(Int)=  0.00000744
 Iteration  2 RMS(Cart)=  0.00000563 RMS(Int)=  0.00000000
 Iteration  3 RMS(Cart)=  0.00000000 RMS(Int)=  0.00000000
 ClnCor:  largest displacement from symmetrization is 1.33D-15 for atom     3.
 Variable       Old X    -DE/DX   Delta X   Delta X   Delta X     New X
                                 (Linear)    (Quad)   (Total)
    R1        3.17373   0.00450   0.00000   0.00478   0.00478   3.17851
    R2        1.83605   0.00004   0.00000   0.00005   0.00005   1.83611
    A1        2.12393  -0.05249   0.00000   0.00536   0.00536   2.12929
         Item               Value     Threshold  Converged?
 Maximum Force            0.052489     0.000450     NO 
 RMS     Force            0.030415     0.000300     NO 
 Maximum Displacement     0.005510     0.001800     NO 
 RMS     Displacement     0.004841     0.001200     NO 
 Predicted change in Energy= 2.656883D-04
 GradGradGradGradGradGradGradGradGradGradGradGradGradGradGradGradGradGrad

                          Input orientation:                          
 ---------------------------------------------------------------------
 Center     Atomic      Atomic             Coordinates (Angstroms)
 Number     Number       Type             X           Y           Z
 ---------------------------------------------------------------------
      1          8           0       -2.612649   -0.543144   -0.926324
      2         17           0       -2.666636    1.063491   -1.421220
      3          1           0       -3.078585   -1.246345   -1.408474
 ---------------------------------------------------------------------
                    Distance matrix (angstroms):
                    1          2          3
     1  O    0.000000
     2  Cl   1.681997   0.000000
     3  H    0.971626   2.346318   0.000000
 Stoichiometry    ClHO
 Framework group  CS[SG(ClHO)]
 Deg. of freedom     3
 Full point group                 CS      NOp   2
 Largest Abelian subgroup         CS      NOp   2
 Largest concise Abelian subgroup C1      NOp   1
                         Standard orientation:                         
 ---------------------------------------------------------------------
 Center     Atomic      Atomic             Coordinates (Angstroms)
 Number     Number       Type             X           Y           Z
 ---------------------------------------------------------------------
      1          8           0        0.031692    1.079964    0.000000
      2         17           0        0.031692   -0.602033   -0.000000
      3          1           0       -0.792299    1.594840    0.000000
 ---------------------------------------------------------------------
 Rotational constants (GHZ):         821.2944822          14.9264958          14.6600587
 Standard basis: SVP (5D, 7F)
 There are    29 symmetry adapted cartesian basis functions of A'  symmetry.
 There are    10 symmetry adapted cartesian basis functions of A"  symmetry.
 There are    27 symmetry adapted basis functions of A'  symmetry.
 There are    10 symmetry adapted basis functions of A"  symmetry.
    37 basis functions,    69 primitive gaussians,    39 cartesian basis functions
    13 alpha electrons       13 beta electrons
       nuclear repulsion energy        50.9784310330 Hartrees.
 NAtoms=    3 NActive=    3 NUniq=    3 SFac= 1.00D+00 NAtFMM=   60 NAOKFM=F Big=F
 Integral buffers will be    131072 words long.
 Raffenetti 2 integral format.
 Two-electron integral symmetry is turned on.
 Nuclear repulsion after empirical dispersion term =       50.9768328496 Hartrees.
 One-electron integrals computed using PRISM.
 NBasis=    37 RedAO= T EigKep=  3.59D-02  NBF=    27    10
 NBsUse=    37 1.00D-06 EigRej= -1.00D+00 NBFU=    27    10
 Initial guess from the checkpoint file:  "/tmp/Gau-24927.chk"
 B after Tr=    -0.000000   -0.000000    0.000000
         Rot=    1.000000   -0.000000    0.000000    0.000247 Ang=   0.03 deg.
 Initial guess orbital symmetries:
       Occupied  (A') (A') (A') (A') (A') (A") (A') (A') (A') (A')
                 (A") (A') (A")
       Virtual   (A') (A') (A') (A') (A') (A") (A') (A') (A") (A')
                 (A") (A') (A") (A') (A') (A') (A") (A') (A') (A")
                 (A') (A") (A') (A')
 Keep R1 ints in memory in symmetry-blocked form, NReq=7153137.
 Requested convergence on RMS density matrix=1.00D-08 within 128 cycles.
 Requested convergence on MAX density matrix=1.00D-06.
 Requested convergence on             energy=1.00D-06.
 No special actions if energy rises.
 SCF Done:  E(RB3LYP) =  -535.750489250     A.U. after    8 cycles
            NFock=  8  Conv=0.34D-08     -V/T= 2.0026
 Calling FoFJK, ICntrl=      2127 FMM=F ISym2X=1 I1Cent= 0 IOpClX= 0 NMat=1 NMatS=1 NMatT=0.
 ***** Axes restored to original set *****
 -------------------------------------------------------------------
 Center     Atomic                   Forces (Hartrees/Bohr)
 Number     Number              X              Y              Z
 -------------------------------------------------------------------
      1        8           0.019778344   -0.018188313    0.032960040
      2       17          -0.009934971   -0.001372362   -0.013823339
      3        1          -0.009843373    0.019560675   -0.019136701
 -------------------------------------------------------------------
 Cartesian Forces:  Max     0.032960040 RMS     0.018091615

 GradGradGradGradGradGradGradGradGradGradGradGradGradGradGradGradGradGrad
 Berny optimization.
 FormGI is forming the generalized inverse of G from B-inverse, IUseBI=4.
 Internal  Forces:  Max     0.053396449 RMS     0.030879560
 Search for a saddle point.
 Step number   6 out of a maximum of  100
 All quantities printed in internal units (Hartrees-Bohrs-Radians)
 Swapping is turned off.
 Second derivative matrix not updated -- analytic derivatives used.
 The second derivative matrix:
                          R1        R2        A1
           R1           0.29596
           R2          -0.00786   0.48614
           A1           0.00755  -0.00011   0.16357
 ITU=  0  0  0  0
     Eigenvalues ---    0.16314   0.29606   0.48647
 Eigenvectors required to have negative eigenvalues:
                          A1        R1        R2
   1                    0.99838  -0.05684  -0.00105
 RFO step:  Lambda0=1.791116354D-01 Lambda= 0.00000000D+00.
 Linear search not attempted -- option 19 set.
 Iteration  1 RMS(Cart)=  0.00011571 RMS(Int)=  0.00000000
 Iteration  2 RMS(Cart)=  0.00000000 RMS(Int)=  0.00000000
 ClnCor:  largest displacement from symmetrization is 4.09D-15 for atom     3.
 Variable       Old X    -DE/DX   Delta X   Delta X   Delta X     New X
                                 (Linear)    (Quad)   (Total)
    R1        3.17851   0.00308   0.00000   0.00011   0.00011   3.17863
    R2        1.83611   0.00006   0.00000   0.00001   0.00001   1.83612
    A1        2.12929  -0.05340   0.00000   0.00013   0.00013   2.12942
         Item               Value     Threshold  Converged?
 Maximum Force            0.053396     0.000450     NO 
 RMS     Force            0.030880     0.000300     NO 
 Maximum Displacement     0.000132     0.001800     YES
 RMS     Displacement     0.000116     0.001200     YES
 Predicted change in Energy= 6.424862D-06
 GradGradGradGradGradGradGradGradGradGradGradGradGradGradGradGradGradGrad

                          Input orientation:                          
 ---------------------------------------------------------------------
 Center     Atomic      Atomic             Coordinates (Angstroms)
 Number     Number       Type             X           Y           Z
 ---------------------------------------------------------------------
      1          8           0       -2.612671   -0.543150   -0.926353
      2         17           0       -2.666618    1.063561   -1.421213
      3          1           0       -3.078581   -1.246410   -1.408452
 ---------------------------------------------------------------------
                    Distance matrix (angstroms):
                    1          2          3
     1  O    0.000000
     2  Cl   1.682057   0.000000
     3  H    0.971631   2.346453   0.000000
 Stoichiometry    ClHO
 Framework group  CS[SG(ClHO)]
 Deg. of freedom     3
 Full point group                 CS      NOp   2
 Largest Abelian subgroup         CS      NOp   2
 Largest concise Abelian subgroup C1      NOp   1
                         Standard orientation:                         
 ---------------------------------------------------------------------
 Center     Atomic      Atomic             Coordinates (Angstroms)
 Number     Number       Type             X           Y           Z
 ---------------------------------------------------------------------
      1          8           0        0.031690    1.079999   -0.000000
      2         17           0        0.031690   -0.602057    0.000000
      3          1           0       -0.792240    1.594982   -0.000000
 ---------------------------------------------------------------------
 Rotational constants (GHZ):         821.4236558          14.9253107          14.6589567
 Standard basis: SVP (5D, 7F)
 There are    29 symmetry adapted cartesian basis functions of A'  symmetry.
 There are    10 symmetry adapted cartesian basis functions of A"  symmetry.
 There are    27 symmetry adapted basis functions of A'  symmetry.
 There are    10 symmetry adapted basis functions of A"  symmetry.
    37 basis functions,    69 primitive gaussians,    39 cartesian basis functions
    13 alpha electrons       13 beta electrons
       nuclear repulsion energy        50.9766721785 Hartrees.
 NAtoms=    3 NActive=    3 NUniq=    3 SFac= 1.00D+00 NAtFMM=   60 NAOKFM=F Big=F
 Integral buffers will be    131072 words long.
 Raffenetti 2 integral format.
 Two-electron integral symmetry is turned on.
 Nuclear repulsion after empirical dispersion term =       50.9750740117 Hartrees.
 One-electron integrals computed using PRISM.
 NBasis=    37 RedAO= T EigKep=  3.59D-02  NBF=    27    10
 NBsUse=    37 1.00D-06 EigRej= -1.00D+00 NBFU=    27    10
 Initial guess from the checkpoint file:  "/tmp/Gau-24927.chk"
 B after Tr=    -0.000000   -0.000000    0.000000
         Rot=    1.000000    0.000000   -0.000000    0.000006 Ang=   0.00 deg.
 Initial guess orbital symmetries:
       Occupied  (A') (A') (A') (A') (A') (A") (A') (A') (A') (A')
                 (A") (A') (A")
       Virtual   (A') (A') (A') (A') (A') (A") (A') (A') (A") (A')
                 (A") (A') (A") (A') (A') (A') (A") (A') (A') (A")
                 (A') (A") (A') (A')
 Keep R1 ints in memory in symmetry-blocked form, NReq=7153137.
 Requested convergence on RMS density matrix=1.00D-08 within 128 cycles.
 Requested convergence on MAX density matrix=1.00D-06.
 Requested convergence on             energy=1.00D-06.
 No special actions if energy rises.
 SCF Done:  E(RB3LYP) =  -535.750482825     A.U. after    6 cycles
            NFock=  6  Conv=0.24D-08     -V/T= 2.0026
 Calling FoFJK, ICntrl=      2127 FMM=F ISym2X=1 I1Cent= 0 IOpClX= 0 NMat=1 NMatS=1 NMatT=0.
 ***** Axes restored to original set *****
 -------------------------------------------------------------------
 Center     Atomic                   Forces (Hartrees/Bohr)
 Number     Number              X              Y              Z
 -------------------------------------------------------------------
      1        8           0.019784223   -0.018164269    0.032962178
      2       17          -0.009937443   -0.001404864   -0.013818415
      3        1          -0.009846780    0.019569133   -0.019143763
 -------------------------------------------------------------------
 Cartesian Forces:  Max     0.032962178 RMS     0.018092141

 GradGradGradGradGradGradGradGradGradGradGradGradGradGradGradGradGradGrad
 Berny optimization.
 FormGI is forming the generalized inverse of G from B-inverse, IUseBI=4.
 Internal  Forces:  Max     0.053417817 RMS     0.030890780
 Search for a saddle point.
 Step number   7 out of a maximum of  100
 All quantities printed in internal units (Hartrees-Bohrs-Radians)
 Swapping is turned off.
 Update second derivatives using D2CorX and points    4    5    7
 The second derivative matrix:
                          R1        R2        A1
           R1           0.29108
           R2          -0.00819   0.48613
           A1           0.00528  -0.00042   0.16471
 ITU=  0  0  0  0
     Eigenvalues ---    0.16449   0.29096   0.48648
 Eigenvectors required to have negative eigenvalues:
                          A1        R1        R2
   1                    0.99913  -0.04168   0.00024
 RFO step:  Lambda0=1.803575818D-01 Lambda=-2.28612613D-06.
 Linear search not attempted -- option 19 set.
 Iteration  1 RMS(Cart)=  0.00268797 RMS(Int)=  0.00000224
 Iteration  2 RMS(Cart)=  0.00000168 RMS(Int)=  0.00000000
 Iteration  3 RMS(Cart)=  0.00000000 RMS(Int)=  0.00000000
 ClnCor:  largest displacement from symmetrization is 3.20D-15 for atom     3.
 Variable       Old X    -DE/DX   Delta X   Delta X   Delta X     New X
                                 (Linear)    (Quad)   (Total)
    R1        3.17863   0.00304   0.00000   0.00268   0.00268   3.18130
    R2        1.83612   0.00006   0.00000   0.00019   0.00019   1.83631
    A1        2.12942  -0.05342   0.00000   0.00292   0.00292   2.13234
         Item               Value     Threshold  Converged?
 Maximum Force            0.053418     0.000450     NO 
 RMS     Force            0.030891     0.000300     NO 
 Maximum Displacement     0.003080     0.001800     NO 
 RMS     Displacement     0.002688     0.001200     NO 
 Predicted change in Energy= 1.494278D-04
 GradGradGradGradGradGradGradGradGradGradGradGradGradGradGradGradGradGrad

                          Input orientation:                          
 ---------------------------------------------------------------------
 Center     Atomic      Atomic             Coordinates (Angstroms)
 Number     Number       Type             X           Y           Z
 ---------------------------------------------------------------------
      1          8           0       -2.613173   -0.543293   -0.927032
      2         17           0       -2.666203    1.065191   -1.421045
      3          1           0       -3.078494   -1.247896   -1.407941
 ---------------------------------------------------------------------
                    Distance matrix (angstroms):
                    1          2          3
     1  O    0.000000
     2  Cl   1.683473   0.000000
     3  H    0.971732   2.349580   0.000000
 Stoichiometry    ClHO
 Framework group  CS[SG(ClHO)]
 Deg. of freedom     3
 Full point group                 CS      NOp   2
 Largest Abelian subgroup         CS      NOp   2
 Largest concise Abelian subgroup C1      NOp   1
                         Standard orientation:                         
 ---------------------------------------------------------------------
 Center     Atomic      Atomic             Coordinates (Angstroms)
 Number     Number       Type             X           Y           Z
 ---------------------------------------------------------------------
      1          8           0        0.031635    1.080831   -0.000000
      2         17           0        0.031635   -0.602642    0.000000
      3          1           0       -0.790874    1.598268   -0.000000
 ---------------------------------------------------------------------
 Rotational constants (GHZ):         824.4208072          14.8973462          14.6329280
 Standard basis: SVP (5D, 7F)
 There are    29 symmetry adapted cartesian basis functions of A'  symmetry.
 There are    10 symmetry adapted cartesian basis functions of A"  symmetry.
 There are    27 symmetry adapted basis functions of A'  symmetry.
 There are    10 symmetry adapted basis functions of A"  symmetry.
    37 basis functions,    69 primitive gaussians,    39 cartesian basis functions
    13 alpha electrons       13 beta electrons
       nuclear repulsion energy        50.9351172761 Hartrees.
 NAtoms=    3 NActive=    3 NUniq=    3 SFac= 1.00D+00 NAtFMM=   60 NAOKFM=F Big=F
 Integral buffers will be    131072 words long.
 Raffenetti 2 integral format.
 Two-electron integral symmetry is turned on.
 Nuclear repulsion after empirical dispersion term =       50.9335194981 Hartrees.
 One-electron integrals computed using PRISM.
 NBasis=    37 RedAO= T EigKep=  3.60D-02  NBF=    27    10
 NBsUse=    37 1.00D-06 EigRej= -1.00D+00 NBFU=    27    10
 Initial guess from the checkpoint file:  "/tmp/Gau-24927.chk"
 B after Tr=     0.000000    0.000000   -0.000000
         Rot=    1.000000   -0.000000    0.000000    0.000133 Ang=   0.02 deg.
 Initial guess orbital symmetries:
       Occupied  (A') (A') (A') (A') (A') (A") (A') (A') (A') (A')
                 (A") (A') (A")
       Virtual   (A') (A') (A') (A') (A') (A") (A') (A') (A") (A')
                 (A") (A') (A") (A') (A') (A') (A") (A') (A') (A")
                 (A') (A") (A') (A')
 Keep R1 ints in memory in symmetry-blocked form, NReq=7153137.
 Requested convergence on RMS density matrix=1.00D-08 within 128 cycles.
 Requested convergence on MAX density matrix=1.00D-06.
 Requested convergence on             energy=1.00D-06.
 No special actions if energy rises.
 SCF Done:  E(RB3LYP) =  -535.750333416     A.U. after    8 cycles
            NFock=  8  Conv=0.19D-08     -V/T= 2.0026
 Calling FoFJK, ICntrl=      2127 FMM=F ISym2X=1 I1Cent= 0 IOpClX= 0 NMat=1 NMatS=1 NMatT=0.
 ***** Axes restored to original set *****
 -------------------------------------------------------------------
 Center     Atomic                   Forces (Hartrees/Bohr)
 Number     Number              X              Y              Z
 -------------------------------------------------------------------
      1        8           0.019923273   -0.017589934    0.033011277
      2       17          -0.009994136   -0.002168917   -0.013700625
      3        1          -0.009929137    0.019758851   -0.019310652
 -------------------------------------------------------------------
 Cartesian Forces:  Max     0.033011277 RMS     0.018105501

 GradGradGradGradGradGradGradGradGradGradGradGradGradGradGradGradGradGrad
 Berny optimization.
 FormGI is forming the generalized inverse of G from B-inverse, IUseBI=4.
 Internal  Forces:  Max     0.053910680 RMS     0.031152756
 Search for a saddle point.
 Step number   8 out of a maximum of  100
 All quantities printed in internal units (Hartrees-Bohrs-Radians)
 Swapping is turned off.
 Update second derivatives using D2CorX and points    5    6    7    8
 The second derivative matrix:
                          R1        R2        A1
           R1           0.28758
           R2          -0.00783   0.48619
           A1           0.00374   0.00012   0.16555
 ITU=  0  0  0  0
     Eigenvalues ---    0.16543   0.28739   0.48649
 Eigenvectors required to have negative eigenvalues:
                          A1        R1        R2
   1                    0.99953  -0.03070  -0.00111
 RFO step:  Lambda0=1.814752997D-01 Lambda=-1.28701673D-06.
 Linear search not attempted -- option 19 set.
 Iteration  1 RMS(Cart)=  0.00197203 RMS(Int)=  0.00000120
 Iteration  2 RMS(Cart)=  0.00000092 RMS(Int)=  0.00000000
 ClnCor:  largest displacement from symmetrization is 4.02D-15 for atom     3.
 Variable       Old X    -DE/DX   Delta X   Delta X   Delta X     New X
                                 (Linear)    (Quad)   (Total)
    R1        3.18130   0.00226   0.00000   0.00204   0.00204   3.18334
    R2        1.83631  -0.00002   0.00000  -0.00012  -0.00012   1.83618
    A1        2.13234  -0.05391   0.00000   0.00217   0.00217   2.13451
         Item               Value     Threshold  Converged?
 Maximum Force            0.053911     0.000450     NO 
 RMS     Force            0.031153     0.000300     NO 
 Maximum Displacement     0.002261     0.001800     NO 
 RMS     Displacement     0.001972     0.001200     NO 
 Predicted change in Energy= 1.135333D-04
 GradGradGradGradGradGradGradGradGradGradGradGradGradGradGradGradGradGrad

                          Input orientation:                          
 ---------------------------------------------------------------------
 Center     Atomic      Atomic             Coordinates (Angstroms)
 Number     Number       Type             X           Y           Z
 ---------------------------------------------------------------------
      1          8           0       -2.613575   -0.543451   -0.927565
      2         17           0       -2.665899    1.066387   -1.420923
      3          1           0       -3.078396   -1.248935   -1.407531
 ---------------------------------------------------------------------
                    Distance matrix (angstroms):
                    1          2          3
     1  O    0.000000
     2  Cl   1.684553   0.000000
     3  H    0.971666   2.351819   0.000000
 Stoichiometry    ClHO
 Framework group  CS[SG(ClHO)]
 Deg. of freedom     3
 Full point group                 CS      NOp   2
 Largest Abelian subgroup         CS      NOp   2
 Largest concise Abelian subgroup C1      NOp   1
                         Standard orientation:                         
 ---------------------------------------------------------------------
 Center     Atomic      Atomic             Coordinates (Angstroms)
 Number     Number       Type             X           Y           Z
 ---------------------------------------------------------------------
      1          8           0        0.031590    1.081470   -0.000000
      2         17           0        0.031590   -0.603083    0.000000
      3          1           0       -0.789738    1.600657    0.000000
 ---------------------------------------------------------------------
 Rotational constants (GHZ):         826.9058201          14.8762668          14.6133682
 Standard basis: SVP (5D, 7F)
 There are    29 symmetry adapted cartesian basis functions of A'  symmetry.
 There are    10 symmetry adapted cartesian basis functions of A"  symmetry.
 There are    27 symmetry adapted basis functions of A'  symmetry.
 There are    10 symmetry adapted basis functions of A"  symmetry.
    37 basis functions,    69 primitive gaussians,    39 cartesian basis functions
    13 alpha electrons       13 beta electrons
       nuclear repulsion energy        50.9043714914 Hartrees.
 NAtoms=    3 NActive=    3 NUniq=    3 SFac= 1.00D+00 NAtFMM=   60 NAOKFM=F Big=F
 Integral buffers will be    131072 words long.
 Raffenetti 2 integral format.
 Two-electron integral symmetry is turned on.
 Nuclear repulsion after empirical dispersion term =       50.9027739962 Hartrees.
 One-electron integrals computed using PRISM.
 NBasis=    37 RedAO= T EigKep=  3.61D-02  NBF=    27    10
 NBsUse=    37 1.00D-06 EigRej= -1.00D+00 NBFU=    27    10
 Initial guess from the checkpoint file:  "/tmp/Gau-24927.chk"
 B after Tr=     0.000000    0.000000    0.000000
         Rot=    1.000000    0.000000   -0.000000    0.000103 Ang=   0.01 deg.
 Initial guess orbital symmetries:
       Occupied  (A') (A') (A') (A') (A') (A") (A') (A') (A') (A')
                 (A") (A') (A")
       Virtual   (A') (A') (A') (A') (A') (A") (A') (A') (A") (A')
                 (A") (A') (A") (A') (A') (A') (A") (A') (A') (A")
                 (A') (A") (A') (A')
 Keep R1 ints in memory in symmetry-blocked form, NReq=7153137.
 Requested convergence on RMS density matrix=1.00D-08 within 128 cycles.
 Requested convergence on MAX density matrix=1.00D-06.
 Requested convergence on             energy=1.00D-06.
 No special actions if energy rises.
 SCF Done:  E(RB3LYP) =  -535.750219888     A.U. after    7 cycles
            NFock=  7  Conv=0.93D-08     -V/T= 2.0026
 Calling FoFJK, ICntrl=      2127 FMM=F ISym2X=1 I1Cent= 0 IOpClX= 0 NMat=1 NMatS=1 NMatT=0.
 ***** Axes restored to original set *****
 -------------------------------------------------------------------
 Center     Atomic                   Forces (Hartrees/Bohr)
 Number     Number              X              Y              Z
 -------------------------------------------------------------------
      1        8           0.020092365   -0.017057674    0.033114197
      2       17          -0.010036173   -0.002747178   -0.013610234
      3        1          -0.010056192    0.019804852   -0.019503963
 -------------------------------------------------------------------
 Cartesian Forces:  Max     0.033114197 RMS     0.018130672

 GradGradGradGradGradGradGradGradGradGradGradGradGradGradGradGradGradGrad
 Berny optimization.
 FormGI is forming the generalized inverse of G from B-inverse, IUseBI=4.
 Internal  Forces:  Max     0.054276639 RMS     0.031351528
 Search for a saddle point.
 Step number   9 out of a maximum of  100
 All quantities printed in internal units (Hartrees-Bohrs-Radians)
 Swapping is turned off.
 Update second derivatives using D2CorX and points    6    7    8    9
 The second derivative matrix:
                          R1        R2        A1
           R1           0.28585
           R2          -0.00895   0.48625
           A1           0.00287  -0.00111   0.16566
 ITU=  0  0  0  0
     Eigenvalues ---    0.16559   0.28552   0.48666
 Eigenvectors required to have negative eigenvalues:
                          A1        R1        R2
   1                    0.99972  -0.02365   0.00280
 RFO step:  Lambda0=1.818111136D-01 Lambda=-6.35549556D-07.
 Linear search not attempted -- option 19 set.
 Iteration  1 RMS(Cart)=  0.00143510 RMS(Int)=  0.00000064
 Iteration  2 RMS(Cart)=  0.00000047 RMS(Int)=  0.00000000
 ClnCor:  largest displacement from symmetrization is 3.77D-15 for atom     3.
 Variable       Old X    -DE/DX   Delta X   Delta X   Delta X     New X
                                 (Linear)    (Quad)   (Total)
    R1        3.18334   0.00167   0.00000   0.00134   0.00134   3.18468
    R2        1.83618   0.00007   0.00000   0.00048   0.00048   1.83666
    A1        2.13451  -0.05428   0.00000   0.00148   0.00148   2.13599
         Item               Value     Threshold  Converged?
 Maximum Force            0.054277     0.000450     NO 
 RMS     Force            0.031352     0.000300     NO 
 Maximum Displacement     0.001637     0.001800     YES
 RMS     Displacement     0.001435     0.001200     NO 
 Predicted change in Energy= 7.867460D-05
 GradGradGradGradGradGradGradGradGradGradGradGradGradGradGradGradGradGrad

                          Input orientation:                          
 ---------------------------------------------------------------------
 Center     Atomic      Atomic             Coordinates (Angstroms)
 Number     Number       Type             X           Y           Z
 ---------------------------------------------------------------------
      1          8           0       -2.613792   -0.543460   -0.927872
      2         17           0       -2.665681    1.067254   -1.420836
      3          1           0       -3.078398   -1.249792   -1.407310
 ---------------------------------------------------------------------
                    Distance matrix (angstroms):
                    1          2          3
     1  O    0.000000
     2  Cl   1.685261   0.000000
     3  H    0.971918   2.353554   0.000000
 Stoichiometry    ClHO
 Framework group  CS[SG(ClHO)]
 Deg. of freedom     3
 Full point group                 CS      NOp   2
 Largest Abelian subgroup         CS      NOp   2
 Largest concise Abelian subgroup C1      NOp   1
                         Standard orientation:                         
 ---------------------------------------------------------------------
 Center     Atomic      Atomic             Coordinates (Angstroms)
 Number     Number       Type             X           Y           Z
 ---------------------------------------------------------------------
      1          8           0        0.031568    1.081881    0.000000
      2         17           0        0.031568   -0.603380   -0.000000
      3          1           0       -0.789202    1.602420    0.000000
 ---------------------------------------------------------------------
 Rotational constants (GHZ):         828.1193392          14.8621547          14.6001280
 Standard basis: SVP (5D, 7F)
 There are    29 symmetry adapted cartesian basis functions of A'  symmetry.
 There are    10 symmetry adapted cartesian basis functions of A"  symmetry.
 There are    27 symmetry adapted basis functions of A'  symmetry.
 There are    10 symmetry adapted basis functions of A"  symmetry.
    37 basis functions,    69 primitive gaussians,    39 cartesian basis functions
    13 alpha electrons       13 beta electrons
       nuclear repulsion energy        50.8824745032 Hartrees.
 NAtoms=    3 NActive=    3 NUniq=    3 SFac= 1.00D+00 NAtFMM=   60 NAOKFM=F Big=F
 Integral buffers will be    131072 words long.
 Raffenetti 2 integral format.
 Two-electron integral symmetry is turned on.
 Nuclear repulsion after empirical dispersion term =       50.8808772221 Hartrees.
 One-electron integrals computed using PRISM.
 NBasis=    37 RedAO= T EigKep=  3.62D-02  NBF=    27    10
 NBsUse=    37 1.00D-06 EigRej= -1.00D+00 NBFU=    27    10
 Initial guess from the checkpoint file:  "/tmp/Gau-24927.chk"
 B after Tr=    -0.000000   -0.000000   -0.000000
         Rot=    1.000000    0.000000   -0.000000    0.000062 Ang=   0.01 deg.
 Initial guess orbital symmetries:
       Occupied  (A') (A') (A') (A') (A') (A") (A') (A') (A') (A')
                 (A") (A') (A")
       Virtual   (A') (A') (A') (A') (A') (A") (A') (A') (A") (A')
                 (A") (A') (A") (A') (A') (A') (A") (A') (A') (A")
                 (A') (A") (A') (A')
 Keep R1 ints in memory in symmetry-blocked form, NReq=7153137.
 Requested convergence on RMS density matrix=1.00D-08 within 128 cycles.
 Requested convergence on MAX density matrix=1.00D-06.
 Requested convergence on             energy=1.00D-06.
 No special actions if energy rises.
 SCF Done:  E(RB3LYP) =  -535.750141213     A.U. after    7 cycles
            NFock=  7  Conv=0.43D-08     -V/T= 2.0026
 Calling FoFJK, ICntrl=      2127 FMM=F ISym2X=1 I1Cent= 0 IOpClX= 0 NMat=1 NMatS=1 NMatT=0.
 ***** Axes restored to original set *****
 -------------------------------------------------------------------
 Center     Atomic                   Forces (Hartrees/Bohr)
 Number     Number              X              Y              Z
 -------------------------------------------------------------------
      1        8           0.020070560   -0.016914001    0.033045710
      2       17          -0.010065794   -0.003120547   -0.013555410
      3        1          -0.010004766    0.020034548   -0.019490300
 -------------------------------------------------------------------
 Cartesian Forces:  Max     0.033045710 RMS     0.018126369

 GradGradGradGradGradGradGradGradGradGradGradGradGradGradGradGradGradGrad
 Berny optimization.
 FormGI is forming the generalized inverse of G from B-inverse, IUseBI=4.
 Internal  Forces:  Max     0.054525248 RMS     0.031489151
 Search for a saddle point.
 Step number  10 out of a maximum of  100
 All quantities printed in internal units (Hartrees-Bohrs-Radians)
 Swapping is turned off.
 Update second derivatives using D2CorX and points    7    8    9   10
 The second derivative matrix:
                          R1        R2        A1
           R1           0.28413
           R2          -0.00591   0.48786
           A1           0.00178   0.00243   0.16534
 ITU=  0  0  0  0
     Eigenvalues ---    0.16529   0.28399   0.48805
 Eigenvectors required to have negative eigenvalues:
                          A1        R1        R2
   1                    0.99985  -0.01536  -0.00781
 RFO step:  Lambda0=1.816639342D-01 Lambda=-1.41534652D-06.
 Linear search not attempted -- option 19 set.
 Iteration  1 RMS(Cart)=  0.00158746 RMS(Int)=  0.00000098
 Iteration  2 RMS(Cart)=  0.00000095 RMS(Int)=  0.00000000
 ClnCor:  largest displacement from symmetrization is 4.00D-15 for atom     3.
 Variable       Old X    -DE/DX   Delta X   Delta X   Delta X     New X
                                 (Linear)    (Quad)   (Total)
    R1        3.18468   0.00129   0.00000   0.00155   0.00155   3.18623
    R2        1.83666  -0.00016   0.00000  -0.00120  -0.00120   1.83546
    A1        2.13599  -0.05453   0.00000   0.00199   0.00199   2.13798
         Item               Value     Threshold  Converged?
 Maximum Force            0.054525     0.000450     NO 
 RMS     Force            0.031489     0.000300     NO 
 Maximum Displacement     0.001607     0.001800     YES
 RMS     Displacement     0.001587     0.001200     NO 
 Predicted change in Energy= 1.072109D-04
 GradGradGradGradGradGradGradGradGradGradGradGradGradGradGradGradGradGrad

                          Input orientation:                          
 ---------------------------------------------------------------------
 Center     Atomic      Atomic             Coordinates (Angstroms)
 Number     Number       Type             X           Y           Z
 ---------------------------------------------------------------------
      1          8           0       -2.614270   -0.543716   -0.928488
      2         17           0       -2.665435    1.068104   -1.420706
      3          1           0       -3.078166   -1.250386   -1.406825
 ---------------------------------------------------------------------
                    Distance matrix (angstroms):
                    1          2          3
     1  O    0.000000
     2  Cl   1.686078   0.000000
     3  H    0.971282   2.354981   0.000000
 Stoichiometry    ClHO
 Framework group  CS[SG(ClHO)]
 Deg. of freedom     3
 Full point group                 CS      NOp   2
 Largest Abelian subgroup         CS      NOp   2
 Largest concise Abelian subgroup C1      NOp   1
                         Standard orientation:                         
 ---------------------------------------------------------------------
 Center     Atomic      Atomic             Coordinates (Angstroms)
 Number     Number       Type             X           Y           Z
 ---------------------------------------------------------------------
      1          8           0        0.031508    1.082366   -0.000000
      2         17           0        0.031508   -0.603713    0.000000
      3          1           0       -0.787689    1.604194   -0.000000
 ---------------------------------------------------------------------
 Rotational constants (GHZ):         831.3816518          14.8463350          14.5858690
 Standard basis: SVP (5D, 7F)
 There are    29 symmetry adapted cartesian basis functions of A'  symmetry.
[...]
     Eigenvalues ---    0.11681   0.29701   0.51056
 Eigenvectors required to have negative eigenvalues:
                          A1        R1        R2
   1                    0.97539  -0.21911  -0.02471
 RFO step:  Lambda0=1.435620383D-01 Lambda= 0.00000000D+00.
 Linear search not attempted -- option 19 set.
 Iteration  1 RMS(Cart)=  0.00000002 RMS(Int)=  0.00000000
 ClnCor:  largest displacement from symmetrization is 1.57D-15 for atom     1.
 Variable       Old X    -DE/DX   Delta X   Delta X   Delta X     New X
                                 (Linear)    (Quad)   (Total)
    R1        3.13072   0.01358   0.00000  -0.00000  -0.00000   3.13072
    R2        1.83138   0.00153   0.00000   0.00000   0.00000   1.83138
    A1        2.19678  -0.06045   0.00000   0.00000   0.00000   2.19678
         Item               Value     Threshold  Converged?
 Maximum Force            0.060452     0.000450     NO 
 RMS     Force            0.035783     0.000300     NO 
 Maximum Displacement     0.000000     0.001800     YES
 RMS     Displacement     0.000000     0.001200     YES
 Predicted change in Energy= 1.104881D-09
 GradGradGradGradGradGradGradGradGradGradGradGradGradGradGradGradGradGrad

                          Input orientation:                          
 ---------------------------------------------------------------------
 Center     Atomic      Atomic             Coordinates (Angstroms)
 Number     Number       Type             X           Y           Z
 ---------------------------------------------------------------------
      1          8           0       -2.624826   -0.527840   -0.947684
      2         17           0       -2.660057    1.062227   -1.411501
      3          1           0       -3.072987   -1.260385   -1.396833
 ---------------------------------------------------------------------
                    Distance matrix (angstroms):
                    1          2          3
     1  O    0.000000
     2  Cl   1.656708   0.000000
     3  H    0.969125   2.359079   0.000000
 Stoichiometry    ClHO
 Framework group  CS[SG(ClHO)]
 Deg. of freedom     3
 Full point group                 CS      NOp   2
 Largest Abelian subgroup         CS      NOp   2
 Largest concise Abelian subgroup C1      NOp   1
                         Standard orientation:                         
 ---------------------------------------------------------------------
 Center     Atomic      Atomic             Coordinates (Angstroms)
 Number     Number       Type             X           Y           Z
 ---------------------------------------------------------------------
      1          8           0        0.030206    1.061394   -0.000000
      2         17           0        0.030206   -0.595314    0.000000
      3          1           0       -0.755162    1.629197   -0.000000
 ---------------------------------------------------------------------
 Rotational constants (GHZ):         909.5833801          15.2922189          15.0393720
 Standard basis: SVP (5D, 7F)
 There are    29 symmetry adapted cartesian basis functions of A'  symmetry.
 There are    10 symmetry adapted cartesian basis functions of A"  symmetry.
 There are    27 symmetry adapted basis functions of A'  symmetry.
 There are    10 symmetry adapted basis functions of A"  symmetry.
    37 basis functions,    69 primitive gaussians,    39 cartesian basis functions
    13 alpha electrons       13 beta electrons
       nuclear repulsion energy        51.6220660713 Hartrees.
 NAtoms=    3 NActive=    3 NUniq=    3 SFac= 1.00D+00 NAtFMM=   60 NAOKFM=F Big=F
 Integral buffers will be    131072 words long.
 Raffenetti 2 integral format.
 Two-electron integral symmetry is turned on.
 Nuclear repulsion after empirical dispersion term =       51.6204688868 Hartrees.
 One-electron integrals computed using PRISM.
 NBasis=    37 RedAO= T EigKep=  3.48D-02  NBF=    27    10
 NBsUse=    37 1.00D-06 EigRej= -1.00D+00 NBFU=    27    10
 Initial guess from the checkpoint file:  "/tmp/Gau-24927.chk"
 B after Tr=    -0.000000   -0.000000   -0.000000
         Rot=    1.000000   -0.000000    0.000000    0.000000 Ang=   0.00 deg.
 Initial guess orbital symmetries:
       Occupied  (A') (A') (A') (A') (A') (A") (A') (A') (A') (A')
                 (A") (A') (A")
       Virtual   (A') (A') (A') (A') (A') (A") (A') (A') (A") (A')
                 (A") (A') (A") (A') (A') (A') (A") (A') (A') (A")
                 (A') (A") (A') (A')
 Keep R1 ints in memory in symmetry-blocked form, NReq=7153137.
 Requested convergence on RMS density matrix=1.00D-08 within 128 cycles.
 Requested convergence on MAX density matrix=1.00D-06.
 Requested convergence on             energy=1.00D-06.
 No special actions if energy rises.
 SCF Done:  E(RB3LYP) =  -535.746246052     A.U. after    1 cycles
            NFock=  1  Conv=0.19D-08     -V/T= 2.0025
 Calling FoFJK, ICntrl=      2127 FMM=F ISym2X=1 I1Cent= 0 IOpClX= 0 NMat=1 NMatS=1 NMatT=0.
 ***** Axes restored to original set *****
 -------------------------------------------------------------------
 Center     Atomic                   Forces (Hartrees/Bohr)
 Number     Number              X              Y              Z
 -------------------------------------------------------------------
      1        8           0.024214622   -0.028318852    0.041926642
      2       17          -0.011604661    0.008421489   -0.018753608
      3        1          -0.012609961    0.019897364   -0.023173034
 -------------------------------------------------------------------
 Cartesian Forces:  Max     0.041926642 RMS     0.023082802

 GradGradGradGradGradGradGradGradGradGradGradGradGradGradGradGradGradGrad
 Berny optimization.
 Internal  Forces:  Max     0.060452115 RMS     0.035782728
 Search for a saddle point.
 Step number  99 out of a maximum of  100
 All quantities printed in internal units (Hartrees-Bohrs-Radians)
 Swapping is turned off.
 Update second derivatives using D2CorX and points   99
 The second derivative matrix:
                          R1        R2        A1
           R1           0.28898
           R2          -0.01243   0.50979
           A1           0.03836   0.00716   0.12560
 ITU=  0  0  0  0
     Eigenvalues ---    0.11681   0.29701   0.51056
 Eigenvectors required to have negative eigenvalues:
                          A1        R1        R2
   1                    0.97539  -0.21911  -0.02471
 RFO step:  Lambda0=1.435620491D-01 Lambda= 0.00000000D+00.
 Linear search not attempted -- option 19 set.
 Iteration  1 RMS(Cart)=  0.00000002 RMS(Int)=  0.00000000
 ClnCor:  largest displacement from symmetrization is 2.84D-15 for atom     3.
 Variable       Old X    -DE/DX   Delta X   Delta X   Delta X     New X
                                 (Linear)    (Quad)   (Total)
    R1        3.13072   0.01358   0.00000  -0.00000  -0.00000   3.13072
    R2        1.83138   0.00153   0.00000  -0.00000  -0.00000   1.83138
    A1        2.19678  -0.06045   0.00000   0.00000   0.00000   2.19678
         Item               Value     Threshold  Converged?
 Maximum Force            0.060452     0.000450     NO 
 RMS     Force            0.035783     0.000300     NO 
 Maximum Displacement     0.000000     0.001800     YES
 RMS     Displacement     0.000000     0.001200     YES
 Predicted change in Energy= 1.996509D-09
 GradGradGradGradGradGradGradGradGradGradGradGradGradGradGradGradGradGrad

                          Input orientation:                          
 ---------------------------------------------------------------------
 Center     Atomic      Atomic             Coordinates (Angstroms)
 Number     Number       Type             X           Y           Z
 ---------------------------------------------------------------------
      1          8           0       -2.624826   -0.527840   -0.947684
      2         17           0       -2.660057    1.062227   -1.411501
      3          1           0       -3.072987   -1.260385   -1.396833
 ---------------------------------------------------------------------
                    Distance matrix (angstroms):
                    1          2          3
     1  O    0.000000
     2  Cl   1.656708   0.000000
     3  H    0.969125   2.359079   0.000000
 Stoichiometry    ClHO
 Framework group  CS[SG(ClHO)]
 Deg. of freedom     3
 Full point group                 CS      NOp   2
 Largest Abelian subgroup         CS      NOp   2
 Largest concise Abelian subgroup C1      NOp   1
                         Standard orientation:                         
 ---------------------------------------------------------------------
 Center     Atomic      Atomic             Coordinates (Angstroms)
 Number     Number       Type             X           Y           Z
 ---------------------------------------------------------------------
      1          8           0        0.030206    1.061394    0.000000
      2         17           0        0.030206   -0.595314   -0.000000
      3          1           0       -0.755162    1.629197    0.000000
 ---------------------------------------------------------------------
 Rotational constants (GHZ):         909.5834539          15.2922189          15.0393720
 Standard basis: SVP (5D, 7F)
 There are    29 symmetry adapted cartesian basis functions of A'  symmetry.
 There are    10 symmetry adapted cartesian basis functions of A"  symmetry.
 There are    27 symmetry adapted basis functions of A'  symmetry.
 There are    10 symmetry adapted basis functions of A"  symmetry.
    37 basis functions,    69 primitive gaussians,    39 cartesian basis functions
    13 alpha electrons       13 beta electrons
       nuclear repulsion energy        51.6220662730 Hartrees.
 NAtoms=    3 NActive=    3 NUniq=    3 SFac= 1.00D+00 NAtFMM=   60 NAOKFM=F Big=F
 Integral buffers will be    131072 words long.
 Raffenetti 2 integral format.
 Two-electron integral symmetry is turned on.
 Nuclear repulsion after empirical dispersion term =       51.6204690885 Hartrees.
 One-electron integrals computed using PRISM.
 NBasis=    37 RedAO= T EigKep=  3.48D-02  NBF=    27    10
 NBsUse=    37 1.00D-06 EigRej= -1.00D+00 NBFU=    27    10
 Initial guess from the checkpoint file:  "/tmp/Gau-24927.chk"
 B after Tr=     0.000000    0.000000    0.000000
         Rot=    1.000000    0.000000   -0.000000    0.000000 Ang=   0.00 deg.
 Initial guess orbital symmetries:
       Occupied  (A') (A') (A') (A') (A') (A") (A') (A') (A') (A')
                 (A") (A') (A")
       Virtual   (A') (A') (A') (A') (A') (A") (A') (A') (A") (A')
                 (A") (A') (A") (A') (A') (A') (A") (A') (A') (A")
                 (A') (A") (A') (A')
 Keep R1 ints in memory in symmetry-blocked form, NReq=7153137.
 Requested convergence on RMS density matrix=1.00D-08 within 128 cycles.
 Requested convergence on MAX density matrix=1.00D-06.
 Requested convergence on             energy=1.00D-06.
 No special actions if energy rises.
 SCF Done:  E(RB3LYP) =  -535.746246050     A.U. after    1 cycles
            NFock=  1  Conv=0.37D-08     -V/T= 2.0025
 Calling FoFJK, ICntrl=      2127 FMM=F ISym2X=1 I1Cent= 0 IOpClX= 0 NMat=1 NMatS=1 NMatT=0.
 ***** Axes restored to original set *****
 -------------------------------------------------------------------
 Center     Atomic                   Forces (Hartrees/Bohr)
 Number     Number              X              Y              Z
 -------------------------------------------------------------------
      1        8           0.024214636   -0.028318806    0.041926650
      2       17          -0.011604657    0.008421487   -0.018753602
      3        1          -0.012609979    0.019897319   -0.023173048
 -------------------------------------------------------------------
 Cartesian Forces:  Max     0.041926650 RMS     0.023082797

 GradGradGradGradGradGradGradGradGradGradGradGradGradGradGradGradGradGrad
 Berny optimization.
 Internal  Forces:  Max     0.060452094 RMS     0.035782716
 Search for a saddle point.
 Step number 100 out of a maximum of  100
 All quantities printed in internal units (Hartrees-Bohrs-Radians)
 Swapping is turned off.
 Update second derivatives using D2CorX and points  100
 The second derivative matrix:
                          R1        R2        A1
           R1           0.28898
           R2          -0.01243   0.50979
           A1           0.03836   0.00716   0.12560
 ITU=  0  0  0  0
     Eigenvalues ---    0.11681   0.29701   0.51056
 Eigenvectors required to have negative eigenvalues:
                          A1        R1        R2
   1                    0.97539  -0.21911  -0.02471
 RFO step:  Lambda0=1.435620342D-01 Lambda= 0.00000000D+00.
 Linear search not attempted -- option 19 set.
 Iteration  1 RMS(Cart)=  0.00000005 RMS(Int)=  0.00000000
 ClnCor:  largest displacement from symmetrization is 9.99D-16 for atom     1.
 Variable       Old X    -DE/DX   Delta X   Delta X   Delta X     New X
                                 (Linear)    (Quad)   (Total)
    R1        3.13072   0.01358   0.00000  -0.00000  -0.00000   3.13072
    R2        1.83138   0.00153   0.00000   0.00000   0.00000   1.83138
    A1        2.19678  -0.06045   0.00000   0.00000   0.00000   2.19678
         Item               Value     Threshold  Converged?
 Maximum Force            0.060452     0.000450     NO 
 RMS     Force            0.035783     0.000300     NO 
 Maximum Displacement     0.000000     0.001800     YES
 RMS     Displacement     0.000000     0.001200     YES
 Predicted change in Energy= 3.992696D-09
 Optimization stopped.
    -- Number of steps exceeded,  NStep= 100
    -- Flag reset to prevent archiving.
                           ----------------------------
                           ! Non-Optimized Parameters !
                           ! (Angstroms and Degrees)  !
 --------------------------                            --------------------------
 ! Name  Definition              Value          Derivative Info.                !
 --------------------------------------------------------------------------------
 ! R1    R(1,2)                  1.6567         -DE/DX =    0.0136              !
 ! R2    R(1,3)                  0.9691         -DE/DX =    0.0015              !
 ! A1    A(2,1,3)              125.8661         -DE/DX =   -0.0605              !
 --------------------------------------------------------------------------------
 GradGradGradGradGradGradGradGradGradGradGradGradGradGradGradGradGradGrad

                          Input orientation:                          
 ---------------------------------------------------------------------
 Center     Atomic      Atomic             Coordinates (Angstroms)
 Number     Number       Type             X           Y           Z
 ---------------------------------------------------------------------
      1          8           0       -2.624826   -0.527840   -0.947684
      2         17           0       -2.660057    1.062227   -1.411501
      3          1           0       -3.072987   -1.260385   -1.396833
 ---------------------------------------------------------------------
                    Distance matrix (angstroms):
                    1          2          3
     1  O    0.000000
     2  Cl   1.656708   0.000000
     3  H    0.969125   2.359079   0.000000
 Stoichiometry    ClHO
 Framework group  CS[SG(ClHO)]
 Deg. of freedom     3
 Full point group                 CS      NOp   2
 Largest Abelian subgroup         CS      NOp   2
 Largest concise Abelian subgroup C1      NOp   1
                         Standard orientation:                         
 ---------------------------------------------------------------------
 Center     Atomic      Atomic             Coordinates (Angstroms)
 Number     Number       Type             X           Y           Z
 ---------------------------------------------------------------------
      1          8           0        0.030206    1.061394    0.000000
      2         17           0        0.030206   -0.595314    0.000000
      3          1           0       -0.755162    1.629197   -0.000000
 ---------------------------------------------------------------------
 Rotational constants (GHZ):         909.5834539          15.2922189          15.0393720

 **********************************************************************

            Population analysis using the SCF density.

 **********************************************************************

 Orbital symmetries:
       Occupied  (A') (A') (A') (A') (A') (A") (A') (A') (A') (A')
                 (A") (A') (A")
       Virtual   (A') (A') (A') (A') (A') (A") (A') (A') (A") (A')
                 (A") (A') (A") (A') (A') (A') (A") (A') (A') (A")
                 (A') (A") (A') (A')
 The electronic state is 1-A'.
 Alpha  occ. eigenvalues -- -101.54209 -19.17556  -9.49402  -7.26779  -7.25085
 Alpha  occ. eigenvalues --   -7.25045  -1.04576  -0.79436  -0.53979  -0.41417
 Alpha  occ. eigenvalues --   -0.40137  -0.29573  -0.26741
 Alpha virt. eigenvalues --   -0.05625   0.07561   0.43339   0.54344   0.69882
 Alpha virt. eigenvalues --    0.70171   0.74265   0.76226   0.76260   0.84948
 Alpha virt. eigenvalues --    0.85181   0.95319   0.99405   1.08137   1.17143
 Alpha virt. eigenvalues --    1.21739   1.45586   1.70117   2.16971   2.63163
 Alpha virt. eigenvalues --    2.73991   2.92290   3.07177   3.63418
          Condensed to atoms (all electrons):
               1          2          3
     1  O    7.952151   0.096245   0.314152
     2  Cl   0.096245  16.778868  -0.020256
     3  H    0.314152  -0.020256   0.488701
 Mulliken charges:
               1
     1  O   -0.362547
     2  Cl   0.145143
     3  H    0.217404
 Sum of Mulliken charges =  -0.00000
 Mulliken charges with hydrogens summed into heavy atoms:
               1
     1  O   -0.145143
     2  Cl   0.145143
 Electronic spatial extent (au):  <R**2>=            102.6136
 Charge=             -0.0000 electrons
 Dipole moment (field-independent basis, Debye):
    X=             -1.5248    Y=              0.4433    Z=              0.0000  Tot=              1.5879
 Quadrupole moment (field-independent basis, Debye-Ang):
   XX=            -17.0861   YY=            -14.5885   ZZ=            -18.5195
   XY=             -2.9030   XZ=              0.0000   YZ=             -0.0000
 Traceless Quadrupole moment (field-independent basis, Debye-Ang):
   XX=             -0.3547   YY=              2.1429   ZZ=             -1.7881
   XY=             -2.9030   XZ=              0.0000   YZ=             -0.0000
 Octapole moment (field-independent basis, Debye-Ang**2):
  XXX=             -1.4483  YYY=              4.7868  ZZZ=             -0.0000  XYY=             -4.4275
  XXY=              2.7821  XXZ=             -0.0000  XZZ=             -0.2147  YZZ=              0.7074
  YYZ=             -0.0000  XYZ=              0.0000
 Hexadecapole moment (field-independent basis, Debye-Ang**3):
 XXXX=            -17.0132 YYYY=            -66.7251 ZZZZ=            -16.5246 XXXY=             -0.0207
 XXXZ=              0.0000 YYYX=             -6.2387 YYYZ=             -0.0000 ZZZX=             -0.0000
 ZZZY=              0.0000 XXYY=            -14.1983 XXZZ=             -5.7243 YYZZ=            -17.4624
 XXYZ=             -0.0000 YYXZ=              0.0000 ZZXY=              0.4768
 N-N= 5.162046908855D+01 E-N=-1.376308320253D+03  KE= 5.344176569716D+02
 Symmetry A'   KE= 4.836675654794D+02
 Symmetry A"   KE= 5.075009149219D+01


       THE DEATH-KNELL OF THE ATOM

 SO THE ATOMS IN TURN, WE NOW CLEARLY DISCERN,
 FLY TO BITS WITH THE UTMOST FACILITY;
 THEY WEND ON THEIR WAY, AND, IN SPLITTING, DISPLAY
 AN ABSOLUTE LACK OF STABILITY.

          SIR WM. RAMSAY, 1905
 Error termination request processed by link 9999.
 Error termination via Lnk1e in /share/apps/g16.a03/g16/l9999.exe at Thu Mar  6 16:39:19 2025.
 Job cpu time:       0 days  0 hours 13 minutes 23.5 seconds.
 Elapsed time:       0 days  0 hours  1 minutes 44.5 seconds.
 File lengths (MBytes):  RWF=      6 Int=      0 D2E=      0 Chk=      1 Scr=      1
