 Entering Gaussian System, Link 0=g16
 Input=ts.gjf
 Output=ts.log
 Initial command:
 /share/apps/g16.a03/g16/l1.exe "/tmp/Gau-24540.inp" -scrdir="/tmp/"
 Entering Link 1 = /share/apps/g16.a03/g16/l1.exe PID=     24542.
  
 Copyright (c) 1988,1990,1992,1993,1995,1998,2003,2009,2016,
            Gaussian, Inc.  All Rights Reserved.
  
 This is part of the Gaussian(R) 16 program.  It is based on
 the Gaussian(R) 09 system (copyright 2009, Gaussian, Inc.),
 the Gaussian(R) 03 system (copyright 2003, Gaussian, Inc.),
 the Gaussian(R) 98 system (copyright 1998, Gaussian, Inc.),
 the Gaussian(R) 94 system (copyright 1995, Gaussian, Inc.),
 the Gaussian 92(TM) system (copyright 1992, Gaussian, Inc.),
 the Gaussian 90(TM) system (copyright 1990, Gaussian, Inc.),
 the Gaussian 88(TM) system (copyright 1988, Gaussian, Inc.),
 the Gaussian 86(TM) system (copyright 1986, Carnegie Mellon
 University), and the Gaussian 82(TM) system (copyright 1983,
 Carnegie Mellon University). Gaussian is a federally registered
 trademark of Gaussian, Inc.
  
 This software contains proprietary and confidential information,
 including trade secrets, belonging to Gaussian, Inc.
  
 This software is provided under written license and may be
 used, copied, transmitted, or stored only in accord with that
 written license.
  
 The following legend is applicable only to US Government
 contracts under FAR:
  
                    RESTRICTED RIGHTS LEGEND
  
 Use, reproduction and disclosure by the US Government is
 subject to restrictions as set forth in subparagraphs (a)
 and (c) of the Commercial Computer Software - Restricted
 Rights clause in FAR 52.227-19.
  
 Gaussian, Inc.
 340 Quinnipiac St., Bldg. 40, Wallingford CT 06492
  
  
 ---------------------------------------------------------------
 Warning -- This program may not be used in any manner that
 competes with the business of Gaussian, Inc. or will provide
 assistance to any competitor of Gaussian, Inc.  The licensee
 of this program is prohibited from giving any competitor of
 Gaussian, Inc. access to this program.  By using this program,
 the user acknowledges that Gaussian, Inc. is engaged in the
 business of creating and licensing software in the field of
 computational chemistry and represents and warrants to the
 licensee that it is not a competitor of Gaussian, Inc. and that
 it will not use this program in any manner prohibited above.
 ---------------------------------------------------------------
  

 Cite this work as:
 Gaussian 16, Revision A.03,
 M. J. Frisch, G. W. Trucks, H. B. Schlegel, G. E. Scuseria, 
 M. A. Robb, J. R. Cheeseman, G. Scalmani, V. Barone, 
 G. A. Petersson, H. Nakatsuji, X. Li, M. Caricato, A. V. Marenich, 
 J. Bloino, B. G. Janesko, R. Gomperts, B. Mennucci, H. P. Hratchian, 
 J. V. Ortiz, A. F. Izmaylov, J. L. Sonnenberg, D. Williams-Young, 
 F. Ding, F. Lipparini, F. Egidi, J. Goings, B. Peng, A. Petrone, 
 T. Henderson, D. Ranasinghe, V. G. Zakrzewski, J. Gao, N. Rega, 
 G. Zheng, W. Liang, M. Hada, M. Ehara, K. Toyota, R. Fukuda, 
 J. Hasegawa, M. Ishida, T. Nakajima, Y. Honda, O. Kitao, H. Nakai, 
 T. Vreven, K. Throssell, J. A. Montgomery, Jr., J. E. Peralta, 
 F. Ogliaro, M. J. Bearpark, J. J. Heyd, E. N. Brothers, K. N. Kudin, 
 V. N. Staroverov, T. A. Keith, R. Kobayashi, J. Normand, 
 K. Raghavachari, A. P. Rendell, J. C. Burant, S. S. Iyengar, 
 J. Tomasi, M. Cossi, J. M. Millam, M. Klene, C. Adamo, R. Cammi, 
 J. W. Ochterski, R. L. Martin, K. Morokuma, O. Farkas, 
 J. B. Foresman, and D. J. Fox, Gaussian, Inc., Wallingford CT, 2016.
 
 ******************************************
 Gaussian 16:  EM64L-G16RevA.03 25-Dec-2016
                 6-Mar-2025 
 ******************************************
 %nproc=8
 Will use up to    8 processors via shared memory.
 %mem=4000MB
 --------------------------------------------------------------------
 #opt=(noeigen,calcfc,ts,recalc=5,maxcyc=200) freq B3LYP/SVP em=GD3BJ
 --------------------------------------------------------------------
 1/5=1,6=200,10=4,11=1,18=20,26=3,38=1,71=5/1,3;
 2/9=110,12=2,17=6,18=5,40=1/2;
 3/5=18,7=101,11=2,25=1,30=1,71=2,74=-5,124=41,140=1/1,2,3;
 4//1;
 5/5=2,38=5/2;
 8/6=4,10=90,11=11/1;
 11/6=1,8=1,9=11,15=111,16=1/1,2,10;
 10/6=1,13=1/2;
 6/7=2,8=2,9=2,10=2,28=1/1;
 7/10=1,18=20,25=1/1,2,3,16;
 1/5=1,6=200,10=4,11=1,18=20,26=3,71=5/3(2);
 2/9=110/2;
 99//99;
 2/9=110/2;
 3/5=18,7=101,11=2,25=1,30=1,71=1,74=-5,124=41/1,2,3;
 4/5=5,16=3,69=1/1;
 5/5=2,38=5/2;
 7//1,2,3,16;
 1/5=1,6=200,11=1,18=20,26=3,71=5/3(-5);
 2/9=110/2;
 6/7=2,8=2,9=2,10=2,19=2,28=1/1;
 99/9=1/99;
 ----------
 ts-632.gjf
 ----------
 Symbolic Z-matrix:
 Charge =  0 Multiplicity = 1
 O                     0.66286   3.69645   1.77934 
 Cl                    2.62795   2.82951   2.05952 
 H                     0.59095   3.8545    2.71352 
 
 Add virtual bond connecting atoms Cl2        and O1         Dist= 4.09D+00.

 GradGradGradGradGradGradGradGradGradGradGradGradGradGradGradGradGradGrad
 Berny optimization.
 Initialization pass.
                           ----------------------------
                           !    Initial Parameters    !
                           ! (Angstroms and Degrees)  !
 --------------------------                            --------------------------
 ! Name  Definition              Value          Derivative Info.                !
 --------------------------------------------------------------------------------
 ! R1    R(1,2)                  2.166          calculate D2E/DX2 analytically  !
 ! R2    R(1,3)                  0.9502         calculate D2E/DX2 analytically  !
 ! A1    A(2,1,3)               90.4619         calculate D2E/DX2 analytically  !
 --------------------------------------------------------------------------------
 Trust Radius=3.00D-01 FncErr=1.00D-07 GrdErr=1.00D-06 EigMax=2.50D+02 EigMin=1.00D-04
 Number of steps in this run=    100 maximum allowed number of steps=    100.
 Search for a saddle point of order  1.
 GradGradGradGradGradGradGradGradGradGradGradGradGradGradGradGradGradGrad

                          Input orientation:                          
 ---------------------------------------------------------------------
 Center     Atomic      Atomic             Coordinates (Angstroms)
 Number     Number       Type             X           Y           Z
 ---------------------------------------------------------------------
      1          8           0        0.662864    3.696449    1.779339
      2         17           0        2.627949    2.829508    2.059522
      3          1           0        0.590951    3.854500    2.713519
 ---------------------------------------------------------------------
                    Distance matrix (angstroms):
                    1          2          3
     1  O    0.000000
     2  Cl   2.166021   0.000000
     3  H    0.950180   2.372273   0.000000
 Stoichiometry    ClHO
 Framework group  CS[SG(ClHO)]
 Deg. of freedom     3
 Full point group                 CS      NOp   2
 Largest Abelian subgroup         CS      NOp   2
 Largest concise Abelian subgroup C1      NOp   1
                         Standard orientation:                         
 ---------------------------------------------------------------------
 Center     Atomic      Atomic             Coordinates (Angstroms)
 Number     Number       Type             X           Y           Z
 ---------------------------------------------------------------------
      1          8           0        0.036544    1.415950    0.000000
      2         17           0        0.036544   -0.750071   -0.000000
      3          1           0       -0.913605    1.423611    0.000000
 ---------------------------------------------------------------------
 Rotational constants (GHZ):         591.1107770           9.4053262           9.2580194
 Standard basis: SVP (5D, 7F)
 There are    29 symmetry adapted cartesian basis functions of A'  symmetry.
 There are    10 symmetry adapted cartesian basis functions of A"  symmetry.
 There are    27 symmetry adapted basis functions of A'  symmetry.
 There are    10 symmetry adapted basis functions of A"  symmetry.
    37 basis functions,    69 primitive gaussians,    39 cartesian basis functions
    13 alpha electrons       13 beta electrons
       nuclear repulsion energy        41.4734760796 Hartrees.
 NAtoms=    3 NActive=    3 NUniq=    3 SFac= 1.00D+00 NAtFMM=   60 NAOKFM=F Big=F
 Integral buffers will be    131072 words long.
 Raffenetti 2 integral format.
 Two-electron integral symmetry is turned on.
 Nuclear repulsion after empirical dispersion term =       41.4718344322 Hartrees.
 One-electron integrals computed using PRISM.
 NBasis=    37 RedAO= T EigKep=  4.88D-02  NBF=    27    10
 NBsUse=    37 1.00D-06 EigRej= -1.00D+00 NBFU=    27    10
 ExpMin= 1.22D-01 ExpMax= 1.04D+04 ExpMxC= 1.57D+03 IAcc=3 IRadAn=         5 AccDes= 0.00D+00
 Harris functional with IExCor=  402 and IRadAn=       5 diagonalized for initial guess.
 HarFok:  IExCor=  402 AccDes= 0.00D+00 IRadAn=         5 IDoV= 1 UseB2=F ITyADJ=14
 ICtDFT=  3500011 ScaDFX=  1.000000  1.000000  1.000000  1.000000
 FoFCou: FMM=F IPFlag=           0 FMFlag=      100000 FMFlg1=           0
         NFxFlg=           0 DoJE=T BraDBF=F KetDBF=T FulRan=T
         wScrn=  0.000000 ICntrl=       500 IOpCl=  0 I1Cent=   200000004 NGrid=           0
         NMat0=    1 NMatS0=      1 NMatT0=    0 NMatD0=    1 NMtDS0=    0 NMtDT0=    0
 Petite list used in FoFCou.
 Initial guess orbital symmetries:
       Occupied  (A') (A') (A') (A') (A') (A") (A') (A') (A') (A')
                 (A") (A') (A")
       Virtual   (A') (A') (A') (A') (A') (A") (A') (A') (A") (A')
                 (A") (A') (A') (A") (A') (A') (A") (A') (A') (A")
                 (A') (A") (A') (A')
 The electronic state of the initial guess is 1-A'.
 Keep R1 ints in memory in symmetry-blocked form, NReq=7153137.
 Requested convergence on RMS density matrix=1.00D-08 within 128 cycles.
 Requested convergence on MAX density matrix=1.00D-06.
 Requested convergence on             energy=1.00D-06.
 No special actions if energy rises.
 Integral accuracy reduced to 1.0D-05 until final iterations.
 Initial convergence to 1.0D-05 achieved.  Increase integral accuracy.
 SCF Done:  E(RB3LYP) =  -535.720007176     A.U. after   13 cycles
            NFock= 13  Conv=0.97D-08     -V/T= 2.0031
 DoSCS=F DFT=T ScalE2(SS,OS)=  1.000000  1.000000
 Range of M.O.s used for correlation:     1    37
 NBasis=    37 NAE=    13 NBE=    13 NFC=     0 NFV=     0
 NROrb=     37 NOA=    13 NOB=    13 NVA=    24 NVB=    24
 Symmetrizing basis deriv contribution to polar:
 IMax=3 JMax=2 DiffMx= 0.00D+00
 G2DrvN: will do     4 centers at a time, making    1 passes.
 Calling FoFCou, ICntrl=  3107 FMM=F I1Cent=   0 AccDes= 0.00D+00.
 End of G2Drv F.D. properties file   721 does not exist.
 End of G2Drv F.D. properties file   722 does not exist.
 End of G2Drv F.D. properties file   788 does not exist.
          IDoAtm=111
          Differentiating once with respect to nuclear coordinates.
 Keep R1 ints in memory in symmetry-blocked form, NReq=7127942.
          There are    12 degrees of freedom in the 1st order CPHF.  IDoFFX=6 NUNeed=     0.
      6 vectors produced by pass  0 Test12= 2.60D-15 8.33D-09 XBig12= 7.91D-02 1.83D-01.
 AX will form     6 AO Fock derivatives at one time.
      6 vectors produced by pass  1 Test12= 2.60D-15 8.33D-09 XBig12= 1.18D-01 1.73D-01.
      6 vectors produced by pass  2 Test12= 2.60D-15 8.33D-09 XBig12= 1.69D-03 1.72D-02.
      6 vectors produced by pass  3 Test12= 2.60D-15 8.33D-09 XBig12= 1.10D-04 3.10D-03.
      6 vectors produced by pass  4 Test12= 2.60D-15 8.33D-09 XBig12= 4.32D-06 1.10D-03.
      6 vectors produced by pass  5 Test12= 2.60D-15 8.33D-09 XBig12= 1.18D-08 4.06D-05.
      3 vectors produced by pass  6 Test12= 2.60D-15 8.33D-09 XBig12= 1.10D-11 1.50D-06.
      1 vectors produced by pass  7 Test12= 2.60D-15 8.33D-09 XBig12= 8.17D-15 2.80D-08.
 InvSVY:  IOpt=1 It=  1 EMax= 2.22D-16
 Solved reduced A of dimension    40 with     6 vectors.
 End of Minotr F.D. properties file   721 does not exist.
 End of Minotr F.D. properties file   722 does not exist.
 End of Minotr F.D. properties file   788 does not exist.

 **********************************************************************

            Population analysis using the SCF density.

 **********************************************************************

 Orbital symmetries:
       Occupied  (A') (A') (A') (A') (A') (A") (A') (A') (A') (A')
                 (A") (A') (A")
       Virtual   (A') (A') (A') (A') (A') (A") (A') (A') (A") (A')
                 (A") (A') (A') (A") (A') (A') (A") (A') (A') (A")
                 (A') (A') (A") (A')
 The electronic state is 1-A'.
 Alpha  occ. eigenvalues -- -101.54986 -19.22117  -9.49795  -7.27141  -7.25552
 Alpha  occ. eigenvalues --   -7.25530  -0.99941  -0.80562  -0.48422  -0.40575
 Alpha  occ. eigenvalues --   -0.36172  -0.33120  -0.31395
 Alpha virt. eigenvalues --   -0.19151   0.06007   0.46577   0.58263   0.66715
 Alpha virt. eigenvalues --    0.71113   0.71501   0.76323   0.76370   0.82655
 Alpha virt. eigenvalues --    0.82920   0.90095   0.95024   0.96566   1.01055
 Alpha virt. eigenvalues --    1.35600   1.40202   1.45184   2.20099   2.58173
 Alpha virt. eigenvalues --    2.65336   2.93351   2.95153   3.66584
          Condensed to atoms (all electrons):
               1          2          3
     1  O    7.763304   0.148119   0.290856
     2  Cl   0.148119  16.851036  -0.003368
     3  H    0.290856  -0.003368   0.514445
 Mulliken charges:
               1
     1  O   -0.202279
     2  Cl   0.004213
     3  H    0.198067
 Sum of Mulliken charges =   0.00000
 Mulliken charges with hydrogens summed into heavy atoms:
               1
     1  O   -0.004213
     2  Cl   0.004213
 APT charges:
               1
     1  O   -0.367939
     2  Cl  -0.001604
     3  H    0.369543
 Sum of APT charges =   0.00000
 APT charges with hydrogens summed into heavy atoms:
               1
     1  O    0.001604
     2  Cl  -0.001604
 Electronic spatial extent (au):  <R**2>=            139.9855
 Charge=              0.0000 electrons
 Dipole moment (field-independent basis, Debye):
    X=             -1.6587    Y=             -0.0044    Z=             -0.0000  Tot=              1.6588
 Quadrupole moment (field-independent basis, Debye-Ang):
   XX=            -16.7302   YY=            -15.8810   ZZ=            -18.7906
   XY=             -2.5928   XZ=             -0.0000   YZ=             -0.0000
 Traceless Quadrupole moment (field-independent basis, Debye-Ang):
   XX=              0.4037   YY=              1.2530   ZZ=             -1.6567
   XY=             -2.5928   XZ=             -0.0000   YZ=             -0.0000
 Octapole moment (field-independent basis, Debye-Ang**2):
  XXX=             -2.1350  YYY=              1.2746  ZZZ=             -0.0000  XYY=             -3.9843
  XXY=              3.4921  XXZ=             -0.0000  XZZ=             -0.2591  YZZ=              0.5650
  YYZ=             -0.0000  XYZ=             -0.0000
 Hexadecapole moment (field-independent basis, Debye-Ang**3):
 XXXX=            -17.0658 YYYY=           -111.3536 ZZZZ=            -16.8431 XXXY=             -0.3050
 XXXZ=              0.0000 YYYX=             -3.8417 YYYZ=             -0.0000 ZZZX=              0.0000
 ZZZY=             -0.0000 XXYY=            -20.7024 XXZZ=             -5.9347 YYZZ=            -24.5655
 XXYZ=             -0.0000 YYXZ=             -0.0000 ZZXY=              0.5522
 N-N= 4.147183443224D+01 E-N=-1.355635167689D+03  KE= 5.340554601282D+02
 Symmetry A'   KE= 4.833050040268D+02
 Symmetry A"   KE= 5.075045610147D+01
  Exact polarizability:   0.000   0.000   0.000   0.000   0.000   0.000
 Approx polarizability:  14.082  -0.858  88.556   0.000   0.000   9.636
 Calling FoFJK, ICntrl=    100147 FMM=F ISym2X=1 I1Cent= 0 IOpClX= 0 NMat=1 NMatS=1 NMatT=0.
 ***** Axes restored to original set *****
 -------------------------------------------------------------------
 Center     Atomic                   Forces (Hartrees/Bohr)
 Number     Number              X              Y              Z
 -------------------------------------------------------------------
      1        8           0.063291772   -0.031727872   -0.019425029
      2       17          -0.059418051    0.026107961   -0.009261703
      3        1          -0.003873721    0.005619912    0.028686731
 -------------------------------------------------------------------
 Cartesian Forces:  Max     0.063291772 RMS     0.034249518
 FormGI is forming the generalized inverse of G from B-inverse, IUseBI=4.

 GradGradGradGradGradGradGradGradGradGradGradGradGradGradGradGradGradGrad
 Berny optimization.
 Internal  Forces:  Max     0.065553975 RMS     0.041529959
 Search for a saddle point.
 Step number   1 out of a maximum of  100
 All quantities printed in internal units (Hartrees-Bohrs-Radians)
 Swapping is turned off.
 Second derivative matrix not updated -- analytic derivatives used.
 The second derivative matrix:
                          R1        R2        A1
           R1           0.01138
           R2          -0.00507   0.60156
           A1           0.02131  -0.00090   0.11850
 ITU=  0
     Eigenvalues ---    0.00726   0.12258   0.60160
 Eigenvectors required to have negative eigenvalues:
                          R1        A1        R2
   1                    0.98213  -0.18805   0.00810
 RFO step:  Lambda0=6.848625742D-02 Lambda=-2.14111256D-03.
 Linear search not attempted -- option 19 set.
 Iteration  1 RMS(Cart)=  0.05917622 RMS(Int)=  0.00287868
 Iteration  2 RMS(Cart)=  0.00313039 RMS(Int)=  0.00000543
 Iteration  3 RMS(Cart)=  0.00000524 RMS(Int)=  0.00000000
 Iteration  4 RMS(Cart)=  0.00000000 RMS(Int)=  0.00000000
 ClnCor:  largest displacement from symmetrization is 8.88D-16 for atom     2.
 Variable       Old X    -DE/DX   Delta X   Delta X   Delta X     New X
                                 (Linear)    (Quad)   (Total)
    R1        4.09319  -0.06555   0.00000   0.07210   0.07210   4.16529
    R2        1.79558   0.02943   0.00000   0.05011   0.05011   1.84569
    A1        1.57886   0.00326   0.00000  -0.08757  -0.08757   1.49129
         Item               Value     Threshold  Converged?
 Maximum Force            0.065554     0.000450     NO 
 RMS     Force            0.041530     0.000300     NO 
 Maximum Displacement     0.059033     0.001800     NO 
 RMS     Displacement     0.060600     0.001200     NO 
 Predicted change in Energy= 4.627340D-03
 GradGradGradGradGradGradGradGradGradGradGradGradGradGradGradGradGradGrad

                          Input orientation:                          
 ---------------------------------------------------------------------
 Center     Atomic      Atomic             Coordinates (Angstroms)
 Number     Number       Type             X           Y           Z
 ---------------------------------------------------------------------
      1          8           0        0.631625    3.707604    1.755244
      2         17           0        2.628703    2.831164    2.074497
      3          1           0        0.621436    3.841689    2.722639
 ---------------------------------------------------------------------
                    Distance matrix (angstroms):
                    1          2          3
     1  O    0.000000
     2  Cl   2.204176   0.000000
     3  H    0.976696   2.338882   0.000000
 Stoichiometry    ClHO
 Framework group  CS[SG(ClHO)]
 Deg. of freedom     3
 Full point group                 CS      NOp   2
 Largest Abelian subgroup         CS      NOp   2
 Largest concise Abelian subgroup C1      NOp   1
                         Standard orientation:                         
 ---------------------------------------------------------------------
 Center     Atomic      Atomic             Coordinates (Angstroms)
 Number     Number       Type             X           Y           Z
 ---------------------------------------------------------------------
      1          8           0        0.037447    1.444175    0.000000
      2         17           0        0.037447   -0.760000   -0.000000
      3          1           0       -0.936164    1.366605    0.000000
 ---------------------------------------------------------------------
 Rotational constants (GHZ):         560.4070980           9.1239940           8.9778259
 Standard basis: SVP (5D, 7F)
 There are    29 symmetry adapted cartesian basis functions of A'  symmetry.
 There are    10 symmetry adapted cartesian basis functions of A"  symmetry.
 There are    27 symmetry adapted basis functions of A'  symmetry.
 There are    10 symmetry adapted basis functions of A"  symmetry.
    37 basis functions,    69 primitive gaussians,    39 cartesian basis functions
    13 alpha electrons       13 beta electrons
       nuclear repulsion energy        40.8315139964 Hartrees.
 NAtoms=    3 NActive=    3 NUniq=    3 SFac= 1.00D+00 NAtFMM=   60 NAOKFM=F Big=F
 Integral buffers will be    131072 words long.
 Raffenetti 2 integral format.
 Two-electron integral symmetry is turned on.
 Nuclear repulsion after empirical dispersion term =       40.8298519637 Hartrees.
 One-electron integrals computed using PRISM.
 NBasis=    37 RedAO= T EigKep=  5.15D-02  NBF=    27    10
 NBsUse=    37 1.00D-06 EigRej= -1.00D+00 NBFU=    27    10
 Initial guess from the checkpoint file:  "/tmp/Gau-24542.chk"
 B after Tr=    -0.000000    0.000000   -0.000000
         Rot=    0.999999    0.000000   -0.000000   -0.001516 Ang=  -0.17 deg.
 Initial guess orbital symmetries:
       Occupied  (A') (A') (A') (A') (A') (A") (A') (A') (A') (A')
                 (A") (A') (A")
       Virtual   (A') (A') (A') (A') (A') (A") (A') (A') (A") (A')
                 (A") (A') (A') (A") (A') (A') (A") (A') (A') (A")
                 (A') (A') (A") (A')
 ExpMin= 1.22D-01 ExpMax= 1.04D+04 ExpMxC= 1.57D+03 IAcc=2 IRadAn=         4 AccDes= 0.00D+00
 Harris functional with IExCor=  402 and IRadAn=       4 diagonalized for initial guess.
 HarFok:  IExCor=  402 AccDes= 0.00D+00 IRadAn=         4 IDoV= 1 UseB2=F ITyADJ=14
 ICtDFT=  3500011 ScaDFX=  1.000000  1.000000  1.000000  1.000000
 FoFCou: FMM=F IPFlag=           0 FMFlag=      100000 FMFlg1=           0
         NFxFlg=           0 DoJE=T BraDBF=F KetDBF=T FulRan=T
         wScrn=  0.000000 ICntrl=       500 IOpCl=  0 I1Cent=   200000004 NGrid=           0
         NMat0=    1 NMatS0=      1 NMatT0=    0 NMatD0=    1 NMtDS0=    0 NMtDT0=    0
 Petite list used in FoFCou.
 Keep R1 ints in memory in symmetry-blocked form, NReq=7153137.
 Requested convergence on RMS density matrix=1.00D-08 within 128 cycles.
 Requested convergence on MAX density matrix=1.00D-06.
 Requested convergence on             energy=1.00D-06.
 No special actions if energy rises.
 Integral accuracy reduced to 1.0D-05 until final iterations.
 Initial convergence to 1.0D-05 achieved.  Increase integral accuracy.
 SCF Done:  E(RB3LYP) =  -535.715441952     A.U. after   13 cycles
            NFock= 13  Conv=0.35D-08     -V/T= 2.0032
 Calling FoFJK, ICntrl=      2127 FMM=F ISym2X=1 I1Cent= 0 IOpClX= 0 NMat=1 NMatS=1 NMatT=0.
 ***** Axes restored to original set *****
 -------------------------------------------------------------------
 Center     Atomic                   Forces (Hartrees/Bohr)
 Number     Number              X              Y              Z
 -------------------------------------------------------------------
      1        8           0.063551480   -0.027871900    0.010296753
      2       17          -0.057743216    0.024966345   -0.012033764
      3        1          -0.005808264    0.002905554    0.001737011
 -------------------------------------------------------------------
 Cartesian Forces:  Max     0.063551480 RMS     0.031744222

 GradGradGradGradGradGradGradGradGradGradGradGradGradGradGradGradGradGrad
 Berny optimization.
 FormGI is forming the generalized inverse of G from B-inverse, IUseBI=4.
 Internal  Forces:  Max     0.063988445 RMS     0.037581123
 Search for a saddle point.
 Step number   2 out of a maximum of  100
 All quantities printed in internal units (Hartrees-Bohrs-Radians)
 Swapping is turned off.
 Update second derivatives using D2CorX and points    1    2
 The second derivative matrix:
                          R1        R2        A1
           R1           0.01234
           R2          -0.01324   0.57968
           A1           0.02046   0.00959   0.11914
 ITU=  0  0
     Eigenvalues ---    0.00817   0.12282   0.58017
 Eigenvectors required to have negative eigenvalues:
                          R1        A1        R2
   1                    0.98270  -0.18339   0.02585
 RFO step:  Lambda0=6.919062861D-02 Lambda=-2.62078042D-05.
 Linear search not attempted -- option 19 set.
 Iteration  1 RMS(Cart)=  0.00379002 RMS(Int)=  0.00000646
 Iteration  2 RMS(Cart)=  0.00000913 RMS(Int)=  0.00000000
 Iteration  3 RMS(Cart)=  0.00000000 RMS(Int)=  0.00000000
 ClnCor:  largest displacement from symmetrization is 1.26D-15 for atom     1.
 Variable       Old X    -DE/DX   Delta X   Delta X   Delta X     New X
                                 (Linear)    (Quad)   (Total)
    R1        4.16529  -0.06399   0.00000   0.00632   0.00632   4.17161
    R2        1.84569   0.00218   0.00000   0.00686   0.00686   1.85255
    A1        1.49129   0.01174   0.00000  -0.00323  -0.00323   1.48806
         Item               Value     Threshold  Converged?
 Maximum Force            0.063988     0.000450     NO 
 RMS     Force            0.037581     0.000300     NO 
 Maximum Displacement     0.003914     0.001800     NO 
 RMS     Displacement     0.003790     0.001200     NO 
 Predicted change in Energy= 4.406271D-04
 GradGradGradGradGradGradGradGradGradGradGradGradGradGradGradGradGradGrad

                          Input orientation:                          
 ---------------------------------------------------------------------
 Center     Atomic      Atomic             Coordinates (Angstroms)
 Number     Number       Type             X           Y           Z
 ---------------------------------------------------------------------
      1          8           0        0.629994    3.708077    1.753173
      2         17           0        2.629934    2.830651    2.074896
      3          1           0        0.621835    3.841729    2.724311
 ---------------------------------------------------------------------
                    Distance matrix (angstroms):
                    1          2          3
     1  O    0.000000
     2  Cl   2.207519   0.000000
     3  H    0.980326   2.340188   0.000000
 Stoichiometry    ClHO
 Framework group  CS[SG(ClHO)]
 Deg. of freedom     3
 Full point group                 CS      NOp   2
 Largest Abelian subgroup         CS      NOp   2
 Largest concise Abelian subgroup C1      NOp   1
                         Standard orientation:                         
 ---------------------------------------------------------------------
 Center     Atomic      Atomic             Coordinates (Angstroms)
 Number     Number       Type             X           Y           Z
 ---------------------------------------------------------------------
      1          8           0        0.037576    1.446494   -0.000000
      2         17           0        0.037576   -0.761025    0.000000
      3          1           0       -0.939397    1.365475   -0.000000
 ---------------------------------------------------------------------
 Rotational constants (GHZ):         556.4625486           9.0979250           8.9515707
 Standard basis: SVP (5D, 7F)
 There are    29 symmetry adapted cartesian basis functions of A'  symmetry.
 There are    10 symmetry adapted cartesian basis functions of A"  symmetry.
 There are    27 symmetry adapted basis functions of A'  symmetry.
 There are    10 symmetry adapted basis functions of A"  symmetry.
    37 basis functions,    69 primitive gaussians,    39 cartesian basis functions
    13 alpha electrons       13 beta electrons
       nuclear repulsion energy        40.7638618802 Hartrees.
 NAtoms=    3 NActive=    3 NUniq=    3 SFac= 1.00D+00 NAtFMM=   60 NAOKFM=F Big=F
 Integral buffers will be    131072 words long.
 Raffenetti 2 integral format.
 Two-electron integral symmetry is turned on.
 Nuclear repulsion after empirical dispersion term =       40.7621986397 Hartrees.
 One-electron integrals computed using PRISM.
 NBasis=    37 RedAO= T EigKep=  5.19D-02  NBF=    27    10
 NBsUse=    37 1.00D-06 EigRej= -1.00D+00 NBFU=    27    10
 Initial guess from the checkpoint file:  "/tmp/Gau-24542.chk"
 B after Tr=     0.000000   -0.000000    0.000000
         Rot=    1.000000    0.000000   -0.000000   -0.000097 Ang=  -0.01 deg.
 Initial guess orbital symmetries:
       Occupied  (A') (A') (A') (A') (A') (A") (A') (A') (A') (A')
                 (A") (A') (A")
       Virtual   (A') (A') (A') (A') (A') (A") (A') (A') (A") (A')
                 (A") (A') (A') (A") (A') (A') (A") (A') (A') (A")
                 (A') (A') (A") (A')
 Keep R1 ints in memory in symmetry-blocked form, NReq=7153137.
 Requested convergence on RMS density matrix=1.00D-08 within 128 cycles.
 Requested convergence on MAX density matrix=1.00D-06.
 Requested convergence on             energy=1.00D-06.
 No special actions if energy rises.
 SCF Done:  E(RB3LYP) =  -535.715002863     A.U. after    9 cycles
            NFock=  9  Conv=0.26D-08     -V/T= 2.0032
 Calling FoFJK, ICntrl=      2127 FMM=F ISym2X=1 I1Cent= 0 IOpClX= 0 NMat=1 NMatS=1 NMatT=0.
 ***** Axes restored to original set *****
 -------------------------------------------------------------------
 Center     Atomic                   Forces (Hartrees/Bohr)
 Number     Number              X              Y              Z
 -------------------------------------------------------------------
      1        8           0.063533401   -0.027405943    0.013718145
      2       17          -0.057683067    0.024926487   -0.012124789
      3        1          -0.005850334    0.002479456   -0.001593356
 -------------------------------------------------------------------
 Cartesian Forces:  Max     0.063533401 RMS     0.031823045

 GradGradGradGradGradGradGradGradGradGradGradGradGradGradGradGradGradGrad
 Berny optimization.
 FormGI is forming the generalized inverse of G from B-inverse, IUseBI=4.
 Internal  Forces:  Max     0.063933936 RMS     0.037555910
 Search for a saddle point.
 Step number   3 out of a maximum of  100
 All quantities printed in internal units (Hartrees-Bohrs-Radians)
 Swapping is turned off.
 Update second derivatives using D2CorX and points    1    2    3
 The second derivative matrix:
                          R1        R2        A1
           R1           0.02200
           R2          -0.02100   0.51792
           A1           0.01531   0.01493   0.12202
 ITU=  0  0  0
     Eigenvalues ---    0.01865   0.12397   0.51932
 Eigenvectors required to have negative eigenvalues:
                          R1        A1        R2
   1                    0.98717  -0.15285   0.04609
 RFO step:  Lambda0=7.498377652D-02 Lambda=-3.75283965D-05.
 Linear search not attempted -- option 19 set.
 Iteration  1 RMS(Cart)=  0.01675704 RMS(Int)=  0.00006486
 Iteration  2 RMS(Cart)=  0.00004786 RMS(Int)=  0.00000000
 Iteration  3 RMS(Cart)=  0.00000000 RMS(Int)=  0.00000000
 ClnCor:  largest displacement from symmetrization is 9.93D-16 for atom     3.
 Variable       Old X    -DE/DX   Delta X   Delta X   Delta X     New X
                                 (Linear)    (Quad)   (Total)
    R1        4.17161  -0.06393   0.00000   0.01825   0.01825   4.18985
    R2        1.85255  -0.00119   0.00000   0.00387   0.00387   1.85642
    A1        1.48806   0.01193   0.00000   0.01323   0.01323   1.50129
         Item               Value     Threshold  Converged?
 Maximum Force            0.063934     0.000450     NO 
 RMS     Force            0.037556     0.000300     NO 
 Maximum Displacement     0.017919     0.001800     NO 
 RMS     Displacement     0.016771     0.001200     NO 
 Predicted change in Energy= 1.034595D-03
 GradGradGradGradGradGradGradGradGradGradGradGradGradGradGradGradGradGrad

                          Input orientation:                          
 ---------------------------------------------------------------------
 Center     Atomic      Atomic             Coordinates (Angstroms)
 Number     Number       Type             X           Y           Z
 ---------------------------------------------------------------------
      1          8           0        0.630135    3.708133    1.754071
      2         17           0        2.639276    2.825937    2.071803
      3          1           0        0.612353    3.846387    2.726505
 ---------------------------------------------------------------------
                    Distance matrix (angstroms):
                    1          2          3
     1  O    0.000000
     2  Cl   2.217176   0.000000
     3  H    0.982373   2.361857   0.000000
 Stoichiometry    ClHO
 Framework group  CS[SG(ClHO)]
 Deg. of freedom     3
 Full point group                 CS      NOp   2
 Largest Abelian subgroup         CS      NOp   2
 Largest concise Abelian subgroup C1      NOp   1
                         Standard orientation:                         
 ---------------------------------------------------------------------
 Center     Atomic      Atomic             Coordinates (Angstroms)
 Number     Number       Type             X           Y           Z
 ---------------------------------------------------------------------
      1          8           0        0.037692    1.452316    0.000000
      2         17           0        0.037692   -0.764860   -0.000000
      3          1           0       -0.942309    1.384085    0.000000
 ---------------------------------------------------------------------
 Rotational constants (GHZ):         553.4045696           9.0127224           8.8682938
 Standard basis: SVP (5D, 7F)
 There are    29 symmetry adapted cartesian basis functions of A'  symmetry.
 There are    10 symmetry adapted cartesian basis functions of A"  symmetry.
 There are    27 symmetry adapted basis functions of A'  symmetry.
 There are    10 symmetry adapted basis functions of A"  symmetry.
    37 basis functions,    69 primitive gaussians,    39 cartesian basis functions
    13 alpha electrons       13 beta electrons
       nuclear repulsion energy        40.5776102910 Hartrees.
 NAtoms=    3 NActive=    3 NUniq=    3 SFac= 1.00D+00 NAtFMM=   60 NAOKFM=F Big=F
 Integral buffers will be    131072 words long.
 Raffenetti 2 integral format.
 Two-electron integral symmetry is turned on.
 Nuclear repulsion after empirical dispersion term =       40.5759462870 Hartrees.
 One-electron integrals computed using PRISM.
 NBasis=    37 RedAO= T EigKep=  5.22D-02  NBF=    27    10
 NBsUse=    37 1.00D-06 EigRej= -1.00D+00 NBFU=    27    10
 Initial guess from the checkpoint file:  "/tmp/Gau-24542.chk"
 B after Tr=     0.000000    0.000000   -0.000000
         Rot=    1.000000    0.000000   -0.000000    0.000238 Ang=   0.03 deg.
 Initial guess orbital symmetries:
       Occupied  (A') (A') (A') (A') (A') (A") (A') (A') (A') (A')
                 (A") (A') (A")
       Virtual   (A') (A') (A') (A') (A') (A") (A') (A') (A") (A')
                 (A") (A') (A') (A") (A') (A') (A") (A') (A') (A")
                 (A') (A') (A") (A')
 Keep R1 ints in memory in symmetry-blocked form, NReq=7153137.
 Requested convergence on RMS density matrix=1.00D-08 within 128 cycles.
 Requested convergence on MAX density matrix=1.00D-06.
 Requested convergence on             energy=1.00D-06.
 No special actions if energy rises.
 SCF Done:  E(RB3LYP) =  -535.713968629     A.U. after   10 cycles
            NFock= 10  Conv=0.84D-09     -V/T= 2.0032
 Calling FoFJK, ICntrl=      2127 FMM=F ISym2X=1 I1Cent= 0 IOpClX= 0 NMat=1 NMatS=1 NMatT=0.
 ***** Axes restored to original set *****
 -------------------------------------------------------------------
 Center     Atomic                   Forces (Hartrees/Bohr)
 Number     Number              X              Y              Z
 -------------------------------------------------------------------
      1        8           0.063002308   -0.026996799    0.014949567
      2       17          -0.058165386    0.025223053   -0.011567195
      3        1          -0.004836922    0.001773746   -0.003382372
 -------------------------------------------------------------------
 Cartesian Forces:  Max     0.063002308 RMS     0.031820337

 GradGradGradGradGradGradGradGradGradGradGradGradGradGradGradGradGradGrad
 Berny optimization.
 FormGI is forming the generalized inverse of G from B-inverse, IUseBI=4.
 Internal  Forces:  Max     0.064401898 RMS     0.037666472
 Search for a saddle point.
 Step number   4 out of a maximum of  100
 All quantities printed in internal units (Hartrees-Bohrs-Radians)
 Swapping is turned off.
 Update second derivatives using D2CorX and points    1    2    3    4
 The second derivative matrix:
                          R1        R2        A1
           R1           0.01242
           R2          -0.01399   0.53047
           A1           0.02233   0.00166   0.11618
 ITU=  0  0  0  0
     Eigenvalues ---    0.00745   0.12078   0.53085
 Eigenvectors required to have negative eigenvalues:
                          R1        A1        R2
   1                    0.97913  -0.20147   0.02682
 RFO step:  Lambda0=6.897836404D-02 Lambda=-8.80674080D-05.
 Linear search not attempted -- option 19 set.
 Iteration  1 RMS(Cart)=  0.02276555 RMS(Int)=  0.00040927
 Iteration  2 RMS(Cart)=  0.00029677 RMS(Int)=  0.00000002
 Iteration  3 RMS(Cart)=  0.00000002 RMS(Int)=  0.00000000
 ClnCor:  largest displacement from symmetrization is 2.98D-15 for atom     3.
 Variable       Old X    -DE/DX   Delta X   Delta X   Delta X     New X
                                 (Linear)    (Quad)   (Total)
    R1        4.18985  -0.06440   0.00000   0.02080   0.02080   4.21066
    R2        1.85642  -0.00301   0.00000  -0.00172  -0.00172   1.85469
    A1        1.50129   0.00998   0.00000  -0.03136  -0.03136   1.46992
         Item               Value     Threshold  Converged?
 Maximum Force            0.064402     0.000450     NO 
 RMS     Force            0.037666     0.000300     NO 
 Maximum Displacement     0.025327     0.001800     NO 
 RMS     Displacement     0.022832     0.001200     NO 
 Predicted change in Energy= 1.694183D-03
 GradGradGradGradGradGradGradGradGradGradGradGradGradGradGradGradGradGrad

                          Input orientation:                          
 ---------------------------------------------------------------------
 Center     Atomic      Atomic             Coordinates (Angstroms)
 Number     Number       Type             X           Y           Z
 ---------------------------------------------------------------------
      1          8           0        0.618785    3.712895    1.750623
      2         17           0        2.637224    2.827703    2.077943
      3          1           0        0.625755    3.839858    2.723813
 ---------------------------------------------------------------------
                    Distance matrix (angstroms):
                    1          2          3
     1  O    0.000000
     2  Cl   2.228183   0.000000
     3  H    0.981462   2.342565   0.000000
 Stoichiometry    ClHO
 Framework group  CS[SG(ClHO)]
 Deg. of freedom     3
 Full point group                 CS      NOp   2
 Largest Abelian subgroup         CS      NOp   2
 Largest concise Abelian subgroup C1      NOp   1
                         Standard orientation:                         
 ---------------------------------------------------------------------
 Center     Atomic      Atomic             Coordinates (Angstroms)
 Number     Number       Type             X           Y           Z
 ---------------------------------------------------------------------
      1          8           0        0.037557    1.460691   -0.000000
      2         17           0        0.037557   -0.767493    0.000000
      3          1           0       -0.938916    1.361853    0.000000
 ---------------------------------------------------------------------
 Rotational constants (GHZ):         556.5403978           8.9378591           8.7965887
 Standard basis: SVP (5D, 7F)
 There are    29 symmetry adapted cartesian basis functions of A'  symmetry.
 There are    10 symmetry adapted cartesian basis functions of A"  symmetry.
 There are    27 symmetry adapted basis functions of A'  symmetry.
 There are    10 symmetry adapted basis functions of A"  symmetry.
    37 basis functions,    69 primitive gaussians,    39 cartesian basis functions
    13 alpha electrons       13 beta electrons
       nuclear repulsion energy        40.4526229543 Hartrees.
 NAtoms=    3 NActive=    3 NUniq=    3 SFac= 1.00D+00 NAtFMM=   60 NAOKFM=F Big=F
 Integral buffers will be    131072 words long.
 Raffenetti 2 integral format.
 Two-electron integral symmetry is turned on.
 Nuclear repulsion after empirical dispersion term =       40.4509535993 Hartrees.
 One-electron integrals computed using PRISM.
 NBasis=    37 RedAO= T EigKep=  5.23D-02  NBF=    27    10
 NBsUse=    37 1.00D-06 EigRej= -1.00D+00 NBFU=    27    10
 Initial guess from the checkpoint file:  "/tmp/Gau-24542.chk"
 B after Tr=     0.000000   -0.000000   -0.000000
         Rot=    1.000000    0.000000   -0.000000   -0.000284 Ang=  -0.03 deg.
 Initial guess orbital symmetries:
       Occupied  (A') (A') (A') (A') (A') (A") (A') (A') (A') (A')
                 (A") (A') (A")
       Virtual   (A') (A') (A') (A') (A') (A") (A') (A') (A") (A')
                 (A") (A') (A') (A") (A') (A') (A") (A') (A') (A")
                 (A') (A') (A") (A')
 ExpMin= 1.22D-01 ExpMax= 1.04D+04 ExpMxC= 1.57D+03 IAcc=2 IRadAn=         4 AccDes= 0.00D+00
 Harris functional with IExCor=  402 and IRadAn=       4 diagonalized for initial guess.
 HarFok:  IExCor=  402 AccDes= 0.00D+00 IRadAn=         4 IDoV= 1 UseB2=F ITyADJ=14
 ICtDFT=  3500011 ScaDFX=  1.000000  1.000000  1.000000  1.000000
 FoFCou: FMM=F IPFlag=           0 FMFlag=      100000 FMFlg1=           0
         NFxFlg=           0 DoJE=T BraDBF=F KetDBF=T FulRan=T
         wScrn=  0.000000 ICntrl=       500 IOpCl=  0 I1Cent=   200000004 NGrid=           0
         NMat0=    1 NMatS0=      1 NMatT0=    0 NMatD0=    1 NMtDS0=    0 NMtDT0=    0
 Petite list used in FoFCou.
 Keep R1 ints in memory in symmetry-blocked form, NReq=7153137.
 Requested convergence on RMS density matrix=1.00D-08 within 128 cycles.
 Requested convergence on MAX density matrix=1.00D-06.
 Requested convergence on             energy=1.00D-06.
 No special actions if energy rises.
 Integral accuracy reduced to 1.0D-05 until final iterations.
 Initial convergence to 1.0D-05 achieved.  Increase integral accuracy.
 SCF Done:  E(RB3LYP) =  -535.712280318     A.U. after   12 cycles
            NFock= 12  Conv=0.70D-08     -V/T= 2.0032
 Calling FoFJK, ICntrl=      2127 FMM=F ISym2X=1 I1Cent= 0 IOpClX= 0 NMat=1 NMatS=1 NMatT=0.
 ***** Axes restored to original set *****
 -------------------------------------------------------------------
 Center     Atomic                   Forces (Hartrees/Bohr)
 Number     Number              X              Y              Z
 -------------------------------------------------------------------
      1        8           0.063858445   -0.027416740    0.014755862
      2       17          -0.057499199    0.024807692   -0.012380258
      3        1          -0.006359246    0.002609048   -0.002375604
 -------------------------------------------------------------------
 Cartesian Forces:  Max     0.063858445 RMS     0.031928836

 GradGradGradGradGradGradGradGradGradGradGradGradGradGradGradGradGradGrad
 Berny optimization.
 FormGI is forming the generalized inverse of G from B-inverse, IUseBI=4.
 Internal  Forces:  Max     0.063761086 RMS     0.037580983
 Search for a saddle point.
 Step number   5 out of a maximum of  100
 All quantities printed in internal units (Hartrees-Bohrs-Radians)
 Swapping is turned off.
 Update second derivatives using D2CorX and points    2    3    4    5
 The second derivative matrix:
                          R1        R2        A1
           R1           0.00846
           R2          -0.00674   0.52957
           A1           0.02641  -0.00334   0.11181
 ITU=  0  0  0  0
     Eigenvalues ---    0.00204   0.11811   0.52969
 Eigenvectors required to have negative eigenvalues:
                          R1        A1        R2
   1                    0.97227  -0.23361   0.01094
 RFO step:  Lambda0=6.606408842D-02 Lambda=-4.95048119D-05.
 Linear search not attempted -- option 19 set.
 Iteration  1 RMS(Cart)=  0.01759954 RMS(Int)=  0.00024173
 Iteration  2 RMS(Cart)=  0.00017248 RMS(Int)=  0.00000000
 Iteration  3 RMS(Cart)=  0.00000000 RMS(Int)=  0.00000000
 ClnCor:  largest displacement from symmetrization is 2.55D-15 for atom     3.
 Variable       Old X    -DE/DX   Delta X   Delta X   Delta X     New X
                                 (Linear)    (Quad)   (Total)
    R1        4.21066  -0.06376   0.00000   0.01479   0.01479   4.22545
    R2        1.85469  -0.00206   0.00000  -0.00251  -0.00251   1.85218
    A1        1.46992   0.01293   0.00000  -0.02386  -0.02386   1.44606
         Item               Value     Threshold  Converged?
 Maximum Force            0.063761     0.000450     NO 
 RMS     Force            0.037581     0.000300     NO 
 Maximum Displacement     0.019729     0.001800     NO 
 RMS     Displacement     0.017631     0.001200     NO 
 Predicted change in Energy= 1.271845D-03
 GradGradGradGradGradGradGradGradGradGradGradGradGradGradGradGradGradGrad

                          Input orientation:                          
 ---------------------------------------------------------------------
 Center     Atomic      Atomic             Coordinates (Angstroms)
 Number     Number       Type             X           Y           Z
 ---------------------------------------------------------------------
      1          8           0        0.610266    3.716536    1.748533
      2         17           0        2.635302    2.829221    2.082676
      3          1           0        0.636195    3.834700    2.721171
 ---------------------------------------------------------------------
                    Distance matrix (angstroms):
                    1          2          3
     1  O    0.000000
     2  Cl   2.236012   0.000000
     3  H    0.980133   2.327035   0.000000
 Stoichiometry    ClHO
 Framework group  CS[SG(ClHO)]
 Deg. of freedom     3
 Full point group                 CS      NOp   2
 Largest Abelian subgroup         CS      NOp   2
 Largest concise Abelian subgroup C1      NOp   1
                         Standard orientation:                         
 ---------------------------------------------------------------------
 Center     Atomic      Atomic             Coordinates (Angstroms)
 Number     Number       Type             X           Y           Z
 ---------------------------------------------------------------------
      1          8           0        0.037405    1.466698    0.000000
      2         17           0        0.037405   -0.769314   -0.000000
      3          1           0       -0.935113    1.344758    0.000000
 ---------------------------------------------------------------------
 Rotational constants (GHZ):         560.4295310           8.8856158           8.7469331
 Standard basis: SVP (5D, 7F)
 There are    29 symmetry adapted cartesian basis functions of A'  symmetry.
 There are    10 symmetry adapted cartesian basis functions of A"  symmetry.
 There are    27 symmetry adapted basis functions of A'  symmetry.
 There are    10 symmetry adapted basis functions of A"  symmetry.
    37 basis functions,    69 primitive gaussians,    39 cartesian basis functions
    13 alpha electrons       13 beta electrons
       nuclear repulsion energy        40.3710126007 Hartrees.
 NAtoms=    3 NActive=    3 NUniq=    3 SFac= 1.00D+00 NAtFMM=   60 NAOKFM=F Big=F
 Integral buffers will be    131072 words long.
 Raffenetti 2 integral format.
 Two-electron integral symmetry is turned on.
 Nuclear repulsion after empirical dispersion term =       40.3693395940 Hartrees.
 One-electron integrals computed using PRISM.
 NBasis=    37 RedAO= T EigKep=  5.22D-02  NBF=    27    10
 NBsUse=    37 1.00D-06 EigRej= -1.00D+00 NBFU=    27    10
 Initial guess from the checkpoint file:  "/tmp/Gau-24542.chk"
 B after Tr=     0.000000    0.000000   -0.000000
         Rot=    1.000000    0.000000   -0.000000   -0.000189 Ang=  -0.02 deg.
 Initial guess orbital symmetries:
       Occupied  (A') (A') (A') (A') (A') (A") (A') (A') (A') (A')
                 (A") (A') (A")
       Virtual   (A') (A') (A') (A') (A') (A") (A') (A') (A") (A')
                 (A") (A') (A') (A") (A') (A') (A") (A') (A') (A")
                 (A') (A') (A") (A')
 Keep R1 ints in memory in symmetry-blocked form, NReq=7153137.
 Requested convergence on RMS density matrix=1.00D-08 within 128 cycles.
 Requested convergence on MAX density matrix=1.00D-06.
 Requested convergence on             energy=1.00D-06.
 No special actions if energy rises.
 SCF Done:  E(RB3LYP) =  -535.711009196     A.U. after   10 cycles
            NFock= 10  Conv=0.30D-08     -V/T= 2.0032
 Calling FoFJK, ICntrl=      2127 FMM=F ISym2X=1 I1Cent= 0 IOpClX= 0 NMat=1 NMatS=1 NMatT=0.
 ***** Axes restored to original set *****
 -------------------------------------------------------------------
 Center     Atomic                   Forces (Hartrees/Bohr)
 Number     Number              X              Y              Z
 -------------------------------------------------------------------
      1        8           0.064413545   -0.027784217    0.013918560
      2       17          -0.056949458    0.024476053   -0.012968068
      3        1          -0.007464087    0.003308163   -0.000950491
 -------------------------------------------------------------------
 Cartesian Forces:  Max     0.064413545 RMS     0.031959771

 GradGradGradGradGradGradGradGradGradGradGradGradGradGradGradGradGradGrad
 Berny optimization.
 FormGI is forming the generalized inverse of G from B-inverse, IUseBI=4.
 Internal  Forces:  Max     0.063227132 RMS     0.037541389
 Search for a saddle point.
 Step number   6 out of a maximum of  100
 All quantities printed in internal units (Hartrees-Bohrs-Radians)
 Swapping is turned off.
 Second derivative matrix not updated -- analytic derivatives used.
 The second derivative matrix:
                          R1        R2        A1
           R1           0.00846
           R2          -0.00674   0.52957
           A1           0.02641  -0.00334   0.11181
 ITU=  0  0  0  0
     Eigenvalues ---    0.00204   0.11811   0.52969
 Eigenvectors required to have negative eigenvalues:
                          R1        A1        R2
   1                    0.97227  -0.23361   0.01094
 RFO step:  Lambda0=6.605090565D-02 Lambda= 0.00000000D+00.
 Linear search not attempted -- option 19 set.
 Iteration  1 RMS(Cart)=  0.00023159 RMS(Int)=  0.00000004
 Iteration  2 RMS(Cart)=  0.00000003 RMS(Int)=  0.00000000
 ClnCor:  largest displacement from symmetrization is 9.93D-16 for atom     3.
 Variable       Old X    -DE/DX   Delta X   Delta X   Delta X     New X
                                 (Linear)    (Quad)   (Total)
    R1        4.22545  -0.06323   0.00000   0.00020   0.00020   4.22565
    R2        1.85218  -0.00074   0.00000  -0.00006  -0.00006   1.85213
    A1        1.44606   0.01516   0.00000  -0.00031  -0.00031   1.44575
         Item               Value     Threshold  Converged?
 Maximum Force            0.063227     0.000450     NO 
 RMS     Force            0.037541     0.000300     NO 
 Maximum Displacement     0.000257     0.001800     YES
 RMS     Displacement     0.000232     0.001200     YES
 Predicted change in Energy= 1.701695D-05
 GradGradGradGradGradGradGradGradGradGradGradGradGradGradGradGradGradGrad

                          Input orientation:                          
 ---------------------------------------------------------------------
 Center     Atomic      Atomic             Coordinates (Angstroms)
 Number     Number       Type             X           Y           Z
 ---------------------------------------------------------------------
      1          8           0        0.610154    3.716585    1.748513
      2         17           0        2.635278    2.829240    2.082737
      3          1           0        0.636331    3.834632    2.721129
 ---------------------------------------------------------------------
                    Distance matrix (angstroms):
                    1          2          3
     1  O    0.000000
     2  Cl   2.236116   0.000000
     3  H    0.980103   2.326831   0.000000
 Stoichiometry    ClHO
 Framework group  CS[SG(ClHO)]
 Deg. of freedom     3
 Full point group                 CS      NOp   2
 Largest Abelian subgroup         CS      NOp   2
 Largest concise Abelian subgroup C1      NOp   1
                         Standard orientation:                         
 ---------------------------------------------------------------------
 Center     Atomic      Atomic             Coordinates (Angstroms)
 Number     Number       Type             X           Y           Z
 ---------------------------------------------------------------------
      1          8           0        0.037402    1.466777   -0.000000
      2         17           0        0.037402   -0.769339    0.000000
      3          1           0       -0.935049    1.344540    0.000000
 ---------------------------------------------------------------------
 Rotational constants (GHZ):         560.4982032           8.8849241           8.7462795
 Standard basis: SVP (5D, 7F)
 There are    29 symmetry adapted cartesian basis functions of A'  symmetry.
 There are    10 symmetry adapted cartesian basis functions of A"  symmetry.
 There are    27 symmetry adapted basis functions of A'  symmetry.
 There are    10 symmetry adapted basis functions of A"  symmetry.
    37 basis functions,    69 primitive gaussians,    39 cartesian basis functions
    13 alpha electrons       13 beta electrons
       nuclear repulsion energy        40.3699910548 Hartrees.
 NAtoms=    3 NActive=    3 NUniq=    3 SFac= 1.00D+00 NAtFMM=   60 NAOKFM=F Big=F
 Integral buffers will be    131072 words long.
 Raffenetti 2 integral format.
 Two-electron integral symmetry is turned on.
 Nuclear repulsion after empirical dispersion term =       40.3683180024 Hartrees.
 One-electron integrals computed using PRISM.
 NBasis=    37 RedAO= T EigKep=  5.22D-02  NBF=    27    10
 NBsUse=    37 1.00D-06 EigRej= -1.00D+00 NBFU=    27    10
 Initial guess from the checkpoint file:  "/tmp/Gau-24542.chk"
 B after Tr=    -0.000000   -0.000000    0.000000
         Rot=    1.000000    0.000000   -0.000000   -0.000002 Ang=  -0.00 deg.
 Initial guess orbital symmetries:
       Occupied  (A') (A') (A') (A') (A') (A") (A') (A') (A') (A')
                 (A") (A') (A")
       Virtual   (A') (A') (A') (A') (A') (A") (A') (A') (A") (A')
                 (A") (A') (A') (A") (A') (A') (A") (A') (A') (A")
                 (A') (A') (A") (A')
 Keep R1 ints in memory in symmetry-blocked form, NReq=7153137.
 Requested convergence on RMS density matrix=1.00D-08 within 128 cycles.
 Requested convergence on MAX density matrix=1.00D-06.
 Requested convergence on             energy=1.00D-06.
 No special actions if energy rises.
 SCF Done:  E(RB3LYP) =  -535.710992179     A.U. after    7 cycles
            NFock=  7  Conv=0.41D-08     -V/T= 2.0032
 Calling FoFJK, ICntrl=      2127 FMM=F ISym2X=1 I1Cent= 0 IOpClX= 0 NMat=1 NMatS=1 NMatT=0.
 ***** Axes restored to original set *****
 -------------------------------------------------------------------
 Center     Atomic                   Forces (Hartrees/Bohr)
 Number     Number              X              Y              Z
 -------------------------------------------------------------------
      1        8           0.064419942   -0.027790197    0.013895861
      2       17          -0.056942224    0.024471748   -0.012975360
      3        1          -0.007477718    0.003318449   -0.000920501
 -------------------------------------------------------------------
 Cartesian Forces:  Max     0.064419942 RMS     0.031959589

 GradGradGradGradGradGradGradGradGradGradGradGradGradGradGradGradGradGrad
 Berny optimization.
 FormGI is forming the generalized inverse of G from B-inverse, IUseBI=4.
 Internal  Forces:  Max     0.063220070 RMS     0.037541094
 Search for a saddle point.
 Step number   7 out of a maximum of  100
 All quantities printed in internal units (Hartrees-Bohrs-Radians)
 Swapping is turned off.
 Update second derivatives using D2CorX and points    4    5    7
 The second derivative matrix:
                          R1        R2        A1
           R1           0.00725
           R2          -0.00599   0.52914
           A1           0.02752  -0.00407   0.11086
 ITU=  0  0  0  0
     Eigenvalues ---    0.00035   0.11764   0.52926
 Eigenvectors required to have negative eigenvalues:
                          R1        A1        R2
   1                    0.97041  -0.24131   0.00914
 RFO step:  Lambda0=6.519654576D-02 Lambda=-2.29742591D-06.
 Linear search not attempted -- option 19 set.
 Iteration  1 RMS(Cart)=  0.00391438 RMS(Int)=  0.00001194
 Iteration  2 RMS(Cart)=  0.00000863 RMS(Int)=  0.00000000
 Iteration  3 RMS(Cart)=  0.00000000 RMS(Int)=  0.00000000
 ClnCor:  largest displacement from symmetrization is 5.76D-15 for atom     3.
 Variable       Old X    -DE/DX   Delta X   Delta X   Delta X     New X
                                 (Linear)    (Quad)   (Total)
    R1        4.22565  -0.06322   0.00000   0.00321   0.00321   4.22886
    R2        1.85213  -0.00071   0.00000  -0.00023  -0.00023   1.85190
    A1        1.44575   0.01519   0.00000  -0.00533  -0.00533   1.44043
         Item               Value     Threshold  Converged?
 Maximum Force            0.063220     0.000450     NO 
 RMS     Force            0.037541     0.000300     NO 
 Maximum Displacement     0.004405     0.001800     NO 
 RMS     Displacement     0.003916     0.001200     NO 
 Predicted change in Energy= 2.850375D-04
 GradGradGradGradGradGradGradGradGradGradGradGradGradGradGradGradGradGrad

                          Input orientation:                          
 ---------------------------------------------------------------------
 Center     Atomic      Atomic             Coordinates (Angstroms)
 Number     Number       Type             X           Y           Z
 ---------------------------------------------------------------------
      1          8           0        0.608277    3.717380    1.747992
      2         17           0        2.634824    2.829590    2.083789
      3          1           0        0.638663    3.833488    2.720598
 ---------------------------------------------------------------------
                    Distance matrix (angstroms):
                    1          2          3
     1  O    0.000000
     2  Cl   2.237816   0.000000
     3  H    0.979983   2.323359   0.000000
 Stoichiometry    ClHO
 Framework group  CS[SG(ClHO)]
 Deg. of freedom     3
 Full point group                 CS      NOp   2
 Largest Abelian subgroup         CS      NOp   2
 Largest concise Abelian subgroup C1      NOp   1
                         Standard orientation:                         
 ---------------------------------------------------------------------
 Center     Atomic      Atomic             Coordinates (Angstroms)
 Number     Number       Type             X           Y           Z
 ---------------------------------------------------------------------
      1          8           0        0.037372    1.468087    0.000000
      2         17           0        0.037372   -0.769729   -0.000000
      3          1           0       -0.934295    1.340689    0.000000
 ---------------------------------------------------------------------
 Rotational constants (GHZ):         561.2611483           8.8736797           8.7355682
 Standard basis: SVP (5D, 7F)
 There are    29 symmetry adapted cartesian basis functions of A'  symmetry.
 There are    10 symmetry adapted cartesian basis functions of A"  symmetry.
 There are    27 symmetry adapted basis functions of A'  symmetry.
 There are    10 symmetry adapted basis functions of A"  symmetry.
    37 basis functions,    69 primitive gaussians,    39 cartesian basis functions
    13 alpha electrons       13 beta electrons
       nuclear repulsion energy        40.3518457630 Hartrees.
 NAtoms=    3 NActive=    3 NUniq=    3 SFac= 1.00D+00 NAtFMM=   60 NAOKFM=F Big=F
 Integral buffers will be    131072 words long.
 Raffenetti 2 integral format.
 Two-electron integral symmetry is turned on.
 Nuclear repulsion after empirical dispersion term =       40.3501719359 Hartrees.
 One-electron integrals computed using PRISM.
 NBasis=    37 RedAO= T EigKep=  5.22D-02  NBF=    27    10
 NBsUse=    37 1.00D-06 EigRej= -1.00D+00 NBFU=    27    10
 Initial guess from the checkpoint file:  "/tmp/Gau-24542.chk"
 B after Tr=    -0.000000   -0.000000   -0.000000
         Rot=    1.000000   -0.000000    0.000000   -0.000045 Ang=  -0.01 deg.
 Initial guess orbital symmetries:
       Occupied  (A') (A') (A') (A') (A') (A") (A') (A') (A') (A')
                 (A") (A') (A")
       Virtual   (A') (A') (A') (A') (A') (A") (A') (A') (A") (A')
                 (A") (A') (A') (A") (A') (A') (A") (A') (A') (A")
                 (A') (A') (A") (A')
 Keep R1 ints in memory in symmetry-blocked form, NReq=7153137.
 Requested convergence on RMS density matrix=1.00D-08 within 128 cycles.
 Requested convergence on MAX density matrix=1.00D-06.
 Requested convergence on             energy=1.00D-06.
 No special actions if energy rises.
 SCF Done:  E(RB3LYP) =  -535.710707161     A.U. after    9 cycles
            NFock=  9  Conv=0.43D-08     -V/T= 2.0032
 Calling FoFJK, ICntrl=      2127 FMM=F ISym2X=1 I1Cent= 0 IOpClX= 0 NMat=1 NMatS=1 NMatT=0.
 ***** Axes restored to original set *****
 -------------------------------------------------------------------
 Center     Atomic                   Forces (Hartrees/Bohr)
 Number     Number              X              Y              Z
 -------------------------------------------------------------------
      1        8           0.064531547   -0.027846431    0.013859464
      2       17          -0.056812715    0.024394768   -0.013105257
      3        1          -0.007718832    0.003451663   -0.000754207
 -------------------------------------------------------------------
 Cartesian Forces:  Max     0.064531547 RMS     0.031969481

 GradGradGradGradGradGradGradGradGradGradGradGradGradGradGradGradGradGrad
 Berny optimization.
 FormGI is forming the generalized inverse of G from B-inverse, IUseBI=4.
 Internal  Forces:  Max     0.063093878 RMS     0.037537232
 Search for a saddle point.
 Step number   8 out of a maximum of  100
 All quantities printed in internal units (Hartrees-Bohrs-Radians)
 Swapping is turned off.
 Update second derivatives using D2CorX and points    5    6    7    8
 The second derivative matrix:
                          R1        R2        A1
           R1           0.00688
           R2          -0.00734   0.52940
           A1           0.02816  -0.00184   0.10977
 ITU=  0  0  0  0
     Eigenvalues ---   -0.00041   0.11694   0.52952
 Eigenvectors required to have negative eigenvalues:
                          R1        A1        R2
   1                    0.96884  -0.24737   0.01257
 RFO step:  Lambda0=6.481069152D-02 Lambda=-1.55684886D-06.
 Linear search not attempted -- option 19 set.
 Maximum step size (   0.300) exceeded in Quadratic search.
    -- Step size scaled by   0.301
 Iteration  1 RMS(Cart)=  0.08376854 RMS(Int)=  0.05229939
 Iteration  2 RMS(Cart)=  0.04170607 RMS(Int)=  0.00005816
 Iteration  3 RMS(Cart)=  0.00008082 RMS(Int)=  0.00000000
 Iteration  4 RMS(Cart)=  0.00000000 RMS(Int)=  0.00000000
 ClnCor:  largest displacement from symmetrization is 6.22D-15 for atom     3.
 Variable       Old X    -DE/DX   Delta X   Delta X   Delta X     New X
                                 (Linear)    (Quad)   (Total)
    R1        4.22886  -0.06309   0.00000   0.29039   0.29039   4.51925
    R2        1.85190  -0.00058   0.00000   0.00390   0.00390   1.85580
    A1        1.44043   0.01568   0.00000  -0.07524  -0.07524   1.36519
         Item               Value     Threshold  Converged?
 Maximum Force            0.063094     0.000450     NO 
 RMS     Force            0.037537     0.000300     NO 
 Maximum Displacement     0.132409     0.001800     NO 
 RMS     Displacement     0.118844     0.001200     NO 
 Predicted change in Energy= 1.948549D-02
 GradGradGradGradGradGradGradGradGradGradGradGradGradGradGradGradGradGrad

                          Input orientation:                          
 ---------------------------------------------------------------------
 Center     Atomic      Atomic             Coordinates (Angstroms)
 Number     Number       Type             X           Y           Z
 ---------------------------------------------------------------------
      1          8           0        0.538744    3.748545    1.741734
      2         17           0        2.704892    2.798916    2.095563
      3          1           0        0.638128    3.832996    2.715082
 ---------------------------------------------------------------------
                    Distance matrix (angstroms):
                    1          2          3
     1  O    0.000000
     2  Cl   2.391482   0.000000
     3  H    0.982046   2.392621   0.000000
 Stoichiometry    ClHO
 Framework group  CS[SG(ClHO)]
 Deg. of freedom     3
 Full point group                 CS      NOp   2
 Largest Abelian subgroup         CS      NOp   2
 Largest concise Abelian subgroup C1      NOp   1
                         Standard orientation:                         
 ---------------------------------------------------------------------
 Center     Atomic      Atomic             Coordinates (Angstroms)
 Number     Number       Type             X           Y           Z
 ---------------------------------------------------------------------
      1          8           0        0.036975    1.571373    0.000000
      2         17           0        0.036975   -0.820109   -0.000000
      3          1           0       -0.924386    1.370877   -0.000000
 ---------------------------------------------------------------------
 Rotational constants (GHZ):         571.6364488           7.7933501           7.6885292
 Standard basis: SVP (5D, 7F)
 There are    29 symmetry adapted cartesian basis functions of A'  symmetry.
 There are    10 symmetry adapted cartesian basis functions of A"  symmetry.
 There are    27 symmetry adapted basis functions of A'  symmetry.
 There are    10 symmetry adapted basis functions of A"  symmetry.
    37 basis functions,    69 primitive gaussians,    39 cartesian basis functions
    13 alpha electrons       13 beta electrons
       nuclear repulsion energy        38.1642270304 Hartrees.
 NAtoms=    3 NActive=    3 NUniq=    3 SFac= 1.00D+00 NAtFMM=   60 NAOKFM=F Big=F
 Integral buffers will be    131072 words long.
 Raffenetti 2 integral format.
 Two-electron integral symmetry is turned on.
 Nuclear repulsion after empirical dispersion term =       38.1625565993 Hartrees.
 One-electron integrals computed using PRISM.
 NBasis=    37 RedAO= T EigKep=  5.40D-02  NBF=    27    10
 NBsUse=    37 1.00D-06 EigRej= -1.00D+00 NBFU=    27    10
 Initial guess from the checkpoint file:  "/tmp/Gau-24542.chk"
 B after Tr=    -0.000000   -0.000000    0.000000
         Rot=    1.000000    0.000000   -0.000000    0.000676 Ang=   0.08 deg.
 Initial guess orbital symmetries:
       Occupied  (A') (A') (A') (A') (A') (A") (A') (A') (A') (A')
                 (A") (A') (A")
       Virtual   (A') (A') (A') (A') (A') (A") (A') (A') (A") (A')
                 (A") (A') (A') (A") (A') (A') (A") (A') (A') (A")
                 (A') (A') (A") (A')
 ExpMin= 1.22D-01 ExpMax= 1.04D+04 ExpMxC= 1.57D+03 IAcc=2 IRadAn=         4 AccDes= 0.00D+00
 Harris functional with IExCor=  402 and IRadAn=       4 diagonalized for initial guess.
 HarFok:  IExCor=  402 AccDes= 0.00D+00 IRadAn=         4 IDoV= 1 UseB2=F ITyADJ=14
 ICtDFT=  3500011 ScaDFX=  1.000000  1.000000  1.000000  1.000000
 FoFCou: FMM=F IPFlag=           0 FMFlag=      100000 FMFlg1=           0
         NFxFlg=           0 DoJE=T BraDBF=F KetDBF=T FulRan=T
         wScrn=  0.000000 ICntrl=       500 IOpCl=  0 I1Cent=   200000004 NGrid=           0
         NMat0=    1 NMatS0=      1 NMatT0=    0 NMatD0=    1 NMtDS0=    0 NMtDT0=    0
 Petite list used in FoFCou.
 Keep R1 ints in memory in symmetry-blocked form, NReq=7153137.
 Requested convergence on RMS density matrix=1.00D-08 within 128 cycles.
 Requested convergence on MAX density matrix=1.00D-06.
 Requested convergence on             energy=1.00D-06.
 No special actions if energy rises.
 Integral accuracy reduced to 1.0D-05 until final iterations.
 Initial convergence to 1.0D-05 achieved.  Increase integral accuracy.
 SCF Done:  E(RB3LYP) =  -535.691454743     A.U. after   12 cycles
            NFock= 12  Conv=0.39D-08     -V/T= 2.0032
 Calling FoFJK, ICntrl=      2127 FMM=F ISym2X=1 I1Cent= 0 IOpClX= 0 NMat=1 NMatS=1 NMatT=0.
 ***** Axes restored to original set *****
 -------------------------------------------------------------------
 Center     Atomic                   Forces (Hartrees/Bohr)
 Number     Number              X              Y              Z
 -------------------------------------------------------------------
      1        8           0.062414154   -0.026946938    0.013298569
      2       17          -0.054676382    0.023511295   -0.012359422
      3        1          -0.007737772    0.003435643   -0.000939147
 -------------------------------------------------------------------
 Cartesian Forces:  Max     0.062414154 RMS     0.030851108

 GradGradGradGradGradGradGradGradGradGradGradGradGradGradGradGradGradGrad
 Berny optimization.
 FormGI is forming the generalized inverse of G from B-inverse, IUseBI=4.
 Internal  Forces:  Max     0.060690273 RMS     0.036185566
 Search for a saddle point.
 Step number   9 out of a maximum of  100
 All quantities printed in internal units (Hartrees-Bohrs-Radians)
 Swapping is turned off.
 Update second derivatives using D2CorX and points    6    7    8    9
 The second derivative matrix:
                          R1        R2        A1
           R1          -0.00075
           R2          -0.00477   0.52865
           A1           0.02881  -0.00213   0.10975
 ITU=  0  0  0  0
     Eigenvalues ---   -0.00784   0.11679   0.52870
 Eigenvectors required to have negative eigenvalues:
                          R1        A1        R2
   1                    0.97129  -0.23778   0.00768
 RFO step:  Lambda0=5.886696463D-02 Lambda=-5.84873913D-06.
 Linear search not attempted -- option 19 set.
 Maximum step size (   0.300) exceeded in Quadratic search.
    -- Step size scaled by   0.319
 Iteration  1 RMS(Cart)=  0.08338699 RMS(Int)=  0.05312500
 Iteration  2 RMS(Cart)=  0.04262424 RMS(Int)=  0.00005021
 Iteration  3 RMS(Cart)=  0.00007154 RMS(Int)=  0.00000000
 Iteration  4 RMS(Cart)=  0.00000000 RMS(Int)=  0.00000000
 ClnCor:  largest displacement from symmetrization is 2.09D-15 for atom     3.
 Variable       Old X    -DE/DX   Delta X   Delta X   Delta X     New X
                                 (Linear)    (Quad)   (Total)
    R1        4.51925  -0.06069   0.00000   0.29184   0.29184   4.81109
    R2        1.85580  -0.00142   0.00000   0.00175   0.00175   1.85755
    A1        1.36519   0.01558   0.00000  -0.06947  -0.06947   1.29571
         Item               Value     Threshold  Converged?
 Maximum Force            0.060690     0.000450     NO 
 RMS     Force            0.036186     0.000300     NO 
 Maximum Displacement     0.136376     0.001800     NO 
 RMS     Displacement     0.119971     0.001200     NO 
 Predicted change in Energy= 1.844454D-02
 GradGradGradGradGradGradGradGradGradGradGradGradGradGradGradGradGradGrad

                          Input orientation:                          
 ---------------------------------------------------------------------
 Center     Atomic      Atomic             Coordinates (Angstroms)
 Number     Number       Type             X           Y           Z
 ---------------------------------------------------------------------
      1          8           0        0.470220    3.779740    1.739171
      2         17           0        2.777059    2.767149    2.106383
      3          1           0        0.634485    3.833568    2.706826
 ---------------------------------------------------------------------
                    Distance matrix (angstroms):
                    1          2          3
     1  O    0.000000
     2  Cl   2.545917   0.000000
     3  H    0.982974   2.467469   0.000000
 Stoichiometry    ClHO
 Framework group  CS[SG(ClHO)]
 Deg. of freedom     3
 Full point group                 CS      NOp   2
 Largest Abelian subgroup         CS      NOp   2
 Largest concise Abelian subgroup C1      NOp   1
                         Standard orientation:                         
 ---------------------------------------------------------------------
 Center     Atomic      Atomic             Coordinates (Angstroms)
 Number     Number       Type             X           Y           Z
 ---------------------------------------------------------------------
      1          8           0        0.036385    1.674907    0.000000
      2         17           0        0.036385   -0.871010   -0.000000
      3          1           0       -0.909631    1.407906   -0.000000
 ---------------------------------------------------------------------
 Rotational constants (GHZ):         588.9959015           6.8921337           6.8124182
 Standard basis: SVP (5D, 7F)
 There are    29 symmetry adapted cartesian basis functions of A'  symmetry.
 There are    10 symmetry adapted cartesian basis functions of A"  symmetry.
 There are    27 symmetry adapted basis functions of A'  symmetry.
 There are    10 symmetry adapted basis functions of A"  symmetry.
    37 basis functions,    69 primitive gaussians,    39 cartesian basis functions
    13 alpha electrons       13 beta electrons
       nuclear repulsion energy        36.2206422964 Hartrees.
 NAtoms=    3 NActive=    3 NUniq=    3 SFac= 1.00D+00 NAtFMM=   60 NAOKFM=F Big=F
 Integral buffers will be    131072 words long.
 Raffenetti 2 integral format.
 Two-electron integral symmetry is turned on.
 Nuclear repulsion after empirical dispersion term =       36.2190084610 Hartrees.
 One-electron integrals computed using PRISM.
 NBasis=    37 RedAO= T EigKep=  5.48D-02  NBF=    27    10
 NBsUse=    37 1.00D-06 EigRej= -1.00D+00 NBFU=    27    10
 Initial guess from the checkpoint file:  "/tmp/Gau-24542.chk"
 B after Tr=     0.000000   -0.000000    0.000000
         Rot=    1.000000    0.000000   -0.000000    0.000787 Ang=   0.09 deg.
 Initial guess orbital symmetries:
       Occupied  (A') (A') (A') (A') (A') (A") (A') (A') (A') (A')
                 (A") (A') (A")
       Virtual   (A') (A') (A') (A') (A') (A") (A') (A') (A") (A')
                 (A") (A') (A') (A") (A') (A') (A") (A') (A') (A")
                 (A') (A') (A") (A')
 ExpMin= 1.22D-01 ExpMax= 1.04D+04 ExpMxC= 1.57D+03 IAcc=2 IRadAn=         4 AccDes= 0.00D+00
 Harris functional with IExCor=  402 and IRadAn=       4 diagonalized for initial guess.
 HarFok:  IExCor=  402 AccDes= 0.00D+00 IRadAn=         4 IDoV= 1 UseB2=F ITyADJ=14
 ICtDFT=  3500011 ScaDFX=  1.000000  1.000000  1.000000  1.000000
 FoFCou: FMM=F IPFlag=           0 FMFlag=      100000 FMFlg1=           0
         NFxFlg=           0 DoJE=T BraDBF=F KetDBF=T FulRan=T
         wScrn=  0.000000 ICntrl=       500 IOpCl=  0 I1Cent=   200000004 NGrid=           0
         NMat0=    1 NMatS0=      1 NMatT0=    0 NMatD0=    1 NMtDS0=    0 NMtDT0=    0
 Petite list used in FoFCou.
 Keep R1 ints in memory in symmetry-blocked form, NReq=7153137.
 Requested convergence on RMS density matrix=1.00D-08 within 128 cycles.
 Requested convergence on MAX density matrix=1.00D-06.
 Requested convergence on             energy=1.00D-06.
 No special actions if energy rises.
 Integral accuracy reduced to 1.0D-05 until final iterations.
 Initial convergence to 1.0D-05 achieved.  Increase integral accuracy.
 SCF Done:  E(RB3LYP) =  -535.673402315     A.U. after   15 cycles
            NFock= 15  Conv=0.36D-08     -V/T= 2.0031
 Calling FoFJK, ICntrl=      2127 FMM=F ISym2X=1 I1Cent= 0 IOpClX= 0 NMat=1 NMatS=1 NMatT=0.
 ***** Axes restored to original set *****
 -------------------------------------------------------------------
 Center     Atomic                   Forces (Hartrees/Bohr)
 Number     Number              X              Y              Z
 -------------------------------------------------------------------
      1        8           0.057321742   -0.024855736    0.011410457
      2       17          -0.049990269    0.021536937   -0.010995793
      3        1          -0.007331473    0.003318800   -0.000414664
 -------------------------------------------------------------------
 Cartesian Forces:  Max     0.057321742 RMS     0.028249876

 GradGradGradGradGradGradGradGradGradGradGradGradGradGradGradGradGradGrad
 Berny optimization.
 FormGI is forming the generalized inverse of G from B-inverse, IUseBI=4.
 Internal  Forces:  Max     0.055449144 RMS     0.033133048
 Search for a saddle point.
 Step number  10 out of a maximum of  100
 All quantities printed in internal units (Hartrees-Bohrs-Radians)
 Swapping is turned off.
 Update second derivatives using D2CorX and points    8    9   10
 The second derivative matrix:
                          R1        R2        A1
           R1          -0.01101
           R2          -0.00358   0.52852
           A1           0.02910  -0.00218   0.10977
 ITU=  0  0  0  0
     Eigenvalues ---   -0.01767   0.11640   0.52855
 Eigenvectors required to have negative eigenvalues:
                          R1        A1        R2
   1                    0.97491  -0.22255   0.00551
 RFO step:  Lambda0=4.918205615D-02 Lambda=-3.69378364D-05.
 Linear search not attempted -- option 19 set.
 Maximum step size (   0.300) exceeded in Quadratic search.
    -- Step size scaled by   0.350
 Iteration  1 RMS(Cart)=  0.08284251 RMS(Int)=  0.05420638
 Iteration  2 RMS(Cart)=  0.04368150 RMS(Int)=  0.00004260
 Iteration  3 RMS(Cart)=  0.00006185 RMS(Int)=  0.00000000
 Iteration  4 RMS(Cart)=  0.00000000 RMS(Int)=  0.00000000
 ClnCor:  largest displacement from symmetrization is 1.42D-15 for atom     3.
 Variable       Old X    -DE/DX   Delta X   Delta X   Delta X     New X
                                 (Linear)    (Quad)   (Total)
    R1        4.81109  -0.05545   0.00000   0.29376   0.29376   5.10484
    R2        1.85755  -0.00145   0.00000   0.00094   0.00094   1.85849
    A1        1.29571   0.01472   0.00000  -0.06088  -0.06088   1.23483
         Item               Value     Threshold  Converged?
 Maximum Force            0.055449     0.000450     NO 
 RMS     Force            0.033133     0.000300     NO 
 Maximum Displacement     0.142472     0.001800     NO 
 RMS     Displacement     0.121678     0.001200     NO 
 Predicted change in Energy= 1.639338D-02
 GradGradGradGradGradGradGradGradGradGradGradGradGradGradGradGradGradGrad

                          Input orientation:                          
 ---------------------------------------------------------------------
 Center     Atomic      Atomic             Coordinates (Angstroms)
[...]
 Berny optimization.
 FormGI is forming the generalized inverse of G from B-inverse, IUseBI=4.
 Internal  Forces:  Max     0.001002021 RMS     0.000578818
 Search for a saddle point.
 Step number  32 out of a maximum of  100
 All quantities printed in internal units (Hartrees-Bohrs-Radians)
 Swapping is turned off.
 Update second derivatives using D2CorX and points   30   31   32
 The second derivative matrix:
                          R1        R2        A1
           R1           0.00754
           R2          -0.00056   0.52857
           A1           0.03017  -0.00332   0.11594
 ITU=  0  0  0  0
     Eigenvalues ---   -0.00029   0.12374   0.52860
 Eigenvectors required to have negative eigenvalues:
                          R1        A1        R2
   1                   -0.96792   0.25127   0.00055
 RFO step:  Lambda0=8.306374765D-04 Lambda=-5.70762130D-07.
 Linear search not attempted -- option 19 set.
 Maximum step size (   0.300) exceeded in Quadratic search.
    -- Step size scaled by   0.349
 Iteration  1 RMS(Cart)=  0.10385265 RMS(Int)=  0.08334452
 Iteration  2 RMS(Cart)=  0.08865139 RMS(Int)=  0.05735671
 New curvilinear step failed, DQL= 8.89D-03 SP=-6.51D-01.
 ITry= 1 IFail=1 DXMaxC= 1.70D-01 DCOld= 1.00D+10 DXMaxT= 3.00D-01 DXLimC= 3.00D+00 Rises=F
 Iteration  1 RMS(Cart)=  0.10380622 RMS(Int)=  0.06435640
 Iteration  2 RMS(Cart)=  0.07249848 RMS(Int)=  0.04862514
 New curvilinear step failed, DQL= 7.44D-03 SP=-7.43D-01.
 ITry= 2 IFail=1 DXMaxC= 1.54D-01 DCOld= 1.00D+10 DXMaxT= 3.00D-01 DXLimC= 3.00D+00 Rises=F
 Iteration  1 RMS(Cart)=  0.10329204 RMS(Int)=  0.04718081
 Iteration  2 RMS(Cart)=  0.05595131 RMS(Int)=  0.03906567
 New curvilinear step failed, DQL= 7.77D-03 SP=-8.64D-01.
 ITry= 3 IFail=1 DXMaxC= 1.37D-01 DCOld= 1.00D+10 DXMaxT= 3.00D-01 DXLimC= 3.00D+00 Rises=F
 Iteration  1 RMS(Cart)=  0.10236541 RMS(Int)=  0.03396567
 New curvilinear step failed, DQL= 5.02D-03 SP=-2.36D-02.
 ITry= 4 IFail=1 DXMaxC= 1.20D-01 DCOld= 1.00D+10 DXMaxT= 3.00D-01 DXLimC= 3.00D+00 Rises=F
 Iteration  1 RMS(Cart)=  0.08969054 RMS(Int)=  0.02533167
 New curvilinear step failed, DQL= 1.74D-04 SP=-2.02D-02.
 ITry= 5 IFail=1 DXMaxC= 1.05D-01 DCOld= 1.00D+10 DXMaxT= 3.00D-01 DXLimC= 3.00D+00 Rises=F
 Iteration  1 RMS(Cart)=  0.07474211 RMS(Int)=  0.01653649
 Iteration  2 RMS(Cart)=  0.02333661 RMS(Int)=  0.01652332
 Iteration  3 RMS(Cart)=  0.02332519 RMS(Int)=  0.01651706
 Iteration  4 RMS(Cart)=  0.02331635 RMS(Int)=  0.01651704
 Iteration  5 RMS(Cart)=  0.02331632 RMS(Int)=  0.01651704
 Iteration  6 RMS(Cart)=  0.02331631 RMS(Int)=  0.01651704
 Iteration  7 RMS(Cart)=  0.02331631 RMS(Int)=  0.01651704
 Iteration  8 RMS(Cart)=  0.02331631 RMS(Int)=  0.01651704
 Iteration  9 RMS(Cart)=  0.02331631 RMS(Int)=  0.01651704
 Iteration 10 RMS(Cart)=  0.02331631 RMS(Int)=  0.01651704
 Iteration 11 RMS(Cart)=  0.02331631 RMS(Int)=  0.01651704
 Iteration 12 RMS(Cart)=  0.02331631 RMS(Int)=  0.01651704
 Iteration 13 RMS(Cart)=  0.02331631 RMS(Int)=  0.01651704
 Iteration 14 RMS(Cart)=  0.02331631 RMS(Int)=  0.01651704
 Iteration 15 RMS(Cart)=  0.02331631 RMS(Int)=  0.01651704
 Iteration 16 RMS(Cart)=  0.02331631 RMS(Int)=  0.01651704
 Iteration 17 RMS(Cart)=  0.02331631 RMS(Int)=  0.01651704
 Iteration 18 RMS(Cart)=  0.02331631 RMS(Int)=  0.01651704
 Iteration 19 RMS(Cart)=  0.02331631 RMS(Int)=  0.01651704
 Iteration 20 RMS(Cart)=  0.02331631 RMS(Int)=  0.01651704
 Iteration 21 RMS(Cart)=  0.02331631 RMS(Int)=  0.01651704
 Iteration 22 RMS(Cart)=  0.02331631 RMS(Int)=  0.01651704
 Iteration 23 RMS(Cart)=  0.02331631 RMS(Int)=  0.01651704
 Iteration 24 RMS(Cart)=  0.02331631 RMS(Int)=  0.01651704
 Iteration 25 RMS(Cart)=  0.02331631 RMS(Int)=  0.01651704
 Iteration 26 RMS(Cart)=  0.02331631 RMS(Int)=  0.01651704
 Iteration 27 RMS(Cart)=  0.02331631 RMS(Int)=  0.01651704
 Iteration 28 RMS(Cart)=  0.02331631 RMS(Int)=  0.01651704
 Iteration 29 RMS(Cart)=  0.02331631 RMS(Int)=  0.01651704
 Iteration 30 RMS(Cart)=  0.02331631 RMS(Int)=  0.01651704
 Iteration 31 RMS(Cart)=  0.02331631 RMS(Int)=  0.01651704
 Iteration 32 RMS(Cart)=  0.02331631 RMS(Int)=  0.01651704
 Iteration 33 RMS(Cart)=  0.02331631 RMS(Int)=  0.01651704
 Iteration 34 RMS(Cart)=  0.02331631 RMS(Int)=  0.01651704
 Iteration 35 RMS(Cart)=  0.02331631 RMS(Int)=  0.01651704
 Iteration 36 RMS(Cart)=  0.02331631 RMS(Int)=  0.01651704
 Iteration 37 RMS(Cart)=  0.02331631 RMS(Int)=  0.01651704
 Iteration 38 RMS(Cart)=  0.02331631 RMS(Int)=  0.01651704
 Iteration 39 RMS(Cart)=  0.02331631 RMS(Int)=  0.01651704
 Iteration 40 RMS(Cart)=  0.02331631 RMS(Int)=  0.01651704
 Iteration 41 RMS(Cart)=  0.02331631 RMS(Int)=  0.01651704
 Iteration 42 RMS(Cart)=  0.02331631 RMS(Int)=  0.01651704
 Iteration 43 RMS(Cart)=  0.02331631 RMS(Int)=  0.01651704
 Iteration 44 RMS(Cart)=  0.02331631 RMS(Int)=  0.01651704
 Iteration 45 RMS(Cart)=  0.02331631 RMS(Int)=  0.01651704
 Iteration 46 RMS(Cart)=  0.02331631 RMS(Int)=  0.01651704
 Iteration 47 RMS(Cart)=  0.02331631 RMS(Int)=  0.01651704
 Iteration 48 RMS(Cart)=  0.02331631 RMS(Int)=  0.01651704
 Iteration 49 RMS(Cart)=  0.02331631 RMS(Int)=  0.01651704
 Iteration 50 RMS(Cart)=  0.02331631 RMS(Int)=  0.01651704
 Iteration 51 RMS(Cart)=  0.02331631 RMS(Int)=  0.01651704
 Iteration 52 RMS(Cart)=  0.02331631 RMS(Int)=  0.01651704
 Iteration 53 RMS(Cart)=  0.02331631 RMS(Int)=  0.01651704
 Iteration 54 RMS(Cart)=  0.02331631 RMS(Int)=  0.01651704
 Iteration 55 RMS(Cart)=  0.02331631 RMS(Int)=  0.01651704
 Iteration 56 RMS(Cart)=  0.02331631 RMS(Int)=  0.01651704
 Iteration 57 RMS(Cart)=  0.02331631 RMS(Int)=  0.01651704
 Iteration 58 RMS(Cart)=  0.02331631 RMS(Int)=  0.01651704
 Iteration 59 RMS(Cart)=  0.02331631 RMS(Int)=  0.01651704
 Iteration 60 RMS(Cart)=  0.02331631 RMS(Int)=  0.01651704
 Iteration 61 RMS(Cart)=  0.02331631 RMS(Int)=  0.01651704
 Iteration 62 RMS(Cart)=  0.02331631 RMS(Int)=  0.01651704
 Iteration 63 RMS(Cart)=  0.02331631 RMS(Int)=  0.01651704
 Iteration 64 RMS(Cart)=  0.02331631 RMS(Int)=  0.01651704
 Iteration 65 RMS(Cart)=  0.02331631 RMS(Int)=  0.01651704
 Iteration 66 RMS(Cart)=  0.02331631 RMS(Int)=  0.01651704
 Iteration 67 RMS(Cart)=  0.02331631 RMS(Int)=  0.01651704
 Iteration 68 RMS(Cart)=  0.02331631 RMS(Int)=  0.01651704
 Iteration 69 RMS(Cart)=  0.02331631 RMS(Int)=  0.01651704
 Iteration 70 RMS(Cart)=  0.02331631 RMS(Int)=  0.01651704
 Iteration 71 RMS(Cart)=  0.02331631 RMS(Int)=  0.01651704
 Iteration 72 RMS(Cart)=  0.02331631 RMS(Int)=  0.01651704
 Iteration 73 RMS(Cart)=  0.02331631 RMS(Int)=  0.01651704
 Iteration 74 RMS(Cart)=  0.02331631 RMS(Int)=  0.01651704
 Iteration 75 RMS(Cart)=  0.02331631 RMS(Int)=  0.01651704
 Iteration 76 RMS(Cart)=  0.02331631 RMS(Int)=  0.01651704
 Iteration 77 RMS(Cart)=  0.02331631 RMS(Int)=  0.01651704
 Iteration 78 RMS(Cart)=  0.02331631 RMS(Int)=  0.01651704
 Iteration 79 RMS(Cart)=  0.02331631 RMS(Int)=  0.01651704
 Iteration 80 RMS(Cart)=  0.02331631 RMS(Int)=  0.01651704
 Iteration 81 RMS(Cart)=  0.02331631 RMS(Int)=  0.01651704
 Iteration 82 RMS(Cart)=  0.02331631 RMS(Int)=  0.01651704
 Iteration 83 RMS(Cart)=  0.02331631 RMS(Int)=  0.01651704
 Iteration 84 RMS(Cart)=  0.02331631 RMS(Int)=  0.01651704
 Iteration 85 RMS(Cart)=  0.02331631 RMS(Int)=  0.01651704
 Iteration 86 RMS(Cart)=  0.02331631 RMS(Int)=  0.01651704
 Iteration 87 RMS(Cart)=  0.02331631 RMS(Int)=  0.01651704
 Iteration 88 RMS(Cart)=  0.02331631 RMS(Int)=  0.01651704
 Iteration 89 RMS(Cart)=  0.02331631 RMS(Int)=  0.01651704
 Iteration 90 RMS(Cart)=  0.02331631 RMS(Int)=  0.01651704
 Iteration 91 RMS(Cart)=  0.02331631 RMS(Int)=  0.01651704
 Iteration 92 RMS(Cart)=  0.02331631 RMS(Int)=  0.01651704
 Iteration 93 RMS(Cart)=  0.02331631 RMS(Int)=  0.01651704
 Iteration 94 RMS(Cart)=  0.02331631 RMS(Int)=  0.01651704
 Iteration 95 RMS(Cart)=  0.02331631 RMS(Int)=  0.01651704
 Iteration 96 RMS(Cart)=  0.02331631 RMS(Int)=  0.01651704
 Iteration 97 RMS(Cart)=  0.02331631 RMS(Int)=  0.01651704
 Iteration 98 RMS(Cart)=  0.02331631 RMS(Int)=  0.01651704
 Iteration 99 RMS(Cart)=  0.02331631 RMS(Int)=  0.01651704
 Iteration100 RMS(Cart)=  0.02331631 RMS(Int)=  0.01651704
 New curvilinear step not converged.
 ITry= 6 IFail=1 DXMaxC= 8.77D-02 DCOld= 1.00D+10 DXMaxT= 3.00D-01 DXLimC= 3.00D+00 Rises=F
 Iteration  1 RMS(Cart)=  0.05979369 RMS(Int)=  0.00774507
 Iteration  2 RMS(Cart)=  0.01091952 RMS(Int)=  0.00772348
 Iteration  3 RMS(Cart)=  0.01090333 RMS(Int)=  0.00772000
 Iteration  4 RMS(Cart)=  0.01089841 RMS(Int)=  0.00772000
 Iteration  5 RMS(Cart)=  0.01089841 RMS(Int)=  0.00772000
 Iteration  6 RMS(Cart)=  0.01089841 RMS(Int)=  0.00772000
 Iteration  7 RMS(Cart)=  0.01089841 RMS(Int)=  0.00772000
 Iteration  8 RMS(Cart)=  0.01089841 RMS(Int)=  0.00772000
 Iteration  9 RMS(Cart)=  0.01089841 RMS(Int)=  0.00772000
 Iteration 10 RMS(Cart)=  0.01089841 RMS(Int)=  0.00772000
 Iteration 11 RMS(Cart)=  0.01089841 RMS(Int)=  0.00772000
 Iteration 12 RMS(Cart)=  0.01089841 RMS(Int)=  0.00772000
 Iteration 13 RMS(Cart)=  0.01089841 RMS(Int)=  0.00772000
 Iteration 14 RMS(Cart)=  0.01089841 RMS(Int)=  0.00772000
 Iteration 15 RMS(Cart)=  0.01089841 RMS(Int)=  0.00772000
 Iteration 16 RMS(Cart)=  0.01089841 RMS(Int)=  0.00772000
 Iteration 17 RMS(Cart)=  0.01089841 RMS(Int)=  0.00772000
 Iteration 18 RMS(Cart)=  0.01089841 RMS(Int)=  0.00772000
 Iteration 19 RMS(Cart)=  0.01089841 RMS(Int)=  0.00772000
 Iteration 20 RMS(Cart)=  0.01089841 RMS(Int)=  0.00772000
 Iteration 21 RMS(Cart)=  0.01089841 RMS(Int)=  0.00772000
 Iteration 22 RMS(Cart)=  0.01089841 RMS(Int)=  0.00772000
 Iteration 23 RMS(Cart)=  0.01089841 RMS(Int)=  0.00772000
 Iteration 24 RMS(Cart)=  0.01089841 RMS(Int)=  0.00772000
 Iteration 25 RMS(Cart)=  0.01089841 RMS(Int)=  0.00772000
 Iteration 26 RMS(Cart)=  0.01089841 RMS(Int)=  0.00772000
 Iteration 27 RMS(Cart)=  0.01089841 RMS(Int)=  0.00772000
 Iteration 28 RMS(Cart)=  0.01089841 RMS(Int)=  0.00772000
 Iteration 29 RMS(Cart)=  0.01089841 RMS(Int)=  0.00772000
 Iteration 30 RMS(Cart)=  0.01089841 RMS(Int)=  0.00772000
 Iteration 31 RMS(Cart)=  0.01089841 RMS(Int)=  0.00772000
 Iteration 32 RMS(Cart)=  0.01089841 RMS(Int)=  0.00772000
 Iteration 33 RMS(Cart)=  0.01089841 RMS(Int)=  0.00772000
 Iteration 34 RMS(Cart)=  0.01089841 RMS(Int)=  0.00772000
 Iteration 35 RMS(Cart)=  0.01089841 RMS(Int)=  0.00772000
 Iteration 36 RMS(Cart)=  0.01089841 RMS(Int)=  0.00772000
 Iteration 37 RMS(Cart)=  0.01089841 RMS(Int)=  0.00772000
 Iteration 38 RMS(Cart)=  0.01089841 RMS(Int)=  0.00772000
 Iteration 39 RMS(Cart)=  0.01089841 RMS(Int)=  0.00772000
 Iteration 40 RMS(Cart)=  0.01089841 RMS(Int)=  0.00772000
 Iteration 41 RMS(Cart)=  0.01089841 RMS(Int)=  0.00772000
 Iteration 42 RMS(Cart)=  0.01089841 RMS(Int)=  0.00772000
 Iteration 43 RMS(Cart)=  0.01089841 RMS(Int)=  0.00772000
 Iteration 44 RMS(Cart)=  0.01089841 RMS(Int)=  0.00772000
 Iteration 45 RMS(Cart)=  0.01089841 RMS(Int)=  0.00772000
 Iteration 46 RMS(Cart)=  0.01089841 RMS(Int)=  0.00772000
 Iteration 47 RMS(Cart)=  0.01089841 RMS(Int)=  0.00772000
 Iteration 48 RMS(Cart)=  0.01089841 RMS(Int)=  0.00772000
 Iteration 49 RMS(Cart)=  0.01089841 RMS(Int)=  0.00772000
 Iteration 50 RMS(Cart)=  0.01089841 RMS(Int)=  0.00772000
 Iteration 51 RMS(Cart)=  0.01089841 RMS(Int)=  0.00772000
 Iteration 52 RMS(Cart)=  0.01089841 RMS(Int)=  0.00772000
 Iteration 53 RMS(Cart)=  0.01089841 RMS(Int)=  0.00772000
 Iteration 54 RMS(Cart)=  0.01089841 RMS(Int)=  0.00772000
 Iteration 55 RMS(Cart)=  0.01089841 RMS(Int)=  0.00772000
 Iteration 56 RMS(Cart)=  0.01089841 RMS(Int)=  0.00772000
 Iteration 57 RMS(Cart)=  0.01089841 RMS(Int)=  0.00772000
 Iteration 58 RMS(Cart)=  0.01089841 RMS(Int)=  0.00772000
 Iteration 59 RMS(Cart)=  0.01089841 RMS(Int)=  0.00772000
 Iteration 60 RMS(Cart)=  0.01089841 RMS(Int)=  0.00772000
 Iteration 61 RMS(Cart)=  0.01089841 RMS(Int)=  0.00772000
 Iteration 62 RMS(Cart)=  0.01089841 RMS(Int)=  0.00772000
 Iteration 63 RMS(Cart)=  0.01089841 RMS(Int)=  0.00772000
 Iteration 64 RMS(Cart)=  0.01089841 RMS(Int)=  0.00772000
 Iteration 65 RMS(Cart)=  0.01089841 RMS(Int)=  0.00772000
 Iteration 66 RMS(Cart)=  0.01089841 RMS(Int)=  0.00772000
 Iteration 67 RMS(Cart)=  0.01089841 RMS(Int)=  0.00772000
 Iteration 68 RMS(Cart)=  0.01089841 RMS(Int)=  0.00772000
 Iteration 69 RMS(Cart)=  0.01089841 RMS(Int)=  0.00772000
 Iteration 70 RMS(Cart)=  0.01089841 RMS(Int)=  0.00772000
 Iteration 71 RMS(Cart)=  0.01089841 RMS(Int)=  0.00772000
 Iteration 72 RMS(Cart)=  0.01089841 RMS(Int)=  0.00772000
 Iteration 73 RMS(Cart)=  0.01089841 RMS(Int)=  0.00772000
 Iteration 74 RMS(Cart)=  0.01089841 RMS(Int)=  0.00772000
 Iteration 75 RMS(Cart)=  0.01089841 RMS(Int)=  0.00772000
 Iteration 76 RMS(Cart)=  0.01089841 RMS(Int)=  0.00772000
 Iteration 77 RMS(Cart)=  0.01089841 RMS(Int)=  0.00772000
 Iteration 78 RMS(Cart)=  0.01089841 RMS(Int)=  0.00772000
 Iteration 79 RMS(Cart)=  0.01089841 RMS(Int)=  0.00772000
 Iteration 80 RMS(Cart)=  0.01089841 RMS(Int)=  0.00772000
 Iteration 81 RMS(Cart)=  0.01089841 RMS(Int)=  0.00772000
 Iteration 82 RMS(Cart)=  0.01089841 RMS(Int)=  0.00772000
 Iteration 83 RMS(Cart)=  0.01089841 RMS(Int)=  0.00772000
 Iteration 84 RMS(Cart)=  0.01089841 RMS(Int)=  0.00772000
 Iteration 85 RMS(Cart)=  0.01089841 RMS(Int)=  0.00772000
 Iteration 86 RMS(Cart)=  0.01089841 RMS(Int)=  0.00772000
 Iteration 87 RMS(Cart)=  0.01089841 RMS(Int)=  0.00772000
 Iteration 88 RMS(Cart)=  0.01089841 RMS(Int)=  0.00772000
 Iteration 89 RMS(Cart)=  0.01089841 RMS(Int)=  0.00772000
 Iteration 90 RMS(Cart)=  0.01089841 RMS(Int)=  0.00772000
 Iteration 91 RMS(Cart)=  0.01089841 RMS(Int)=  0.00772000
 Iteration 92 RMS(Cart)=  0.01089841 RMS(Int)=  0.00772000
 Iteration 93 RMS(Cart)=  0.01089841 RMS(Int)=  0.00772000
 Iteration 94 RMS(Cart)=  0.01089841 RMS(Int)=  0.00772000
 Iteration 95 RMS(Cart)=  0.01089841 RMS(Int)=  0.00772000
 Iteration 96 RMS(Cart)=  0.01089841 RMS(Int)=  0.00772000
 Iteration 97 RMS(Cart)=  0.01089841 RMS(Int)=  0.00772000
 Iteration 98 RMS(Cart)=  0.01089841 RMS(Int)=  0.00772000
 Iteration 99 RMS(Cart)=  0.01089841 RMS(Int)=  0.00772000
 Iteration100 RMS(Cart)=  0.01089841 RMS(Int)=  0.00772000
 New curvilinear step not converged.
 ITry= 7 IFail=1 DXMaxC= 7.03D-02 DCOld= 1.00D+10 DXMaxT= 3.00D-01 DXLimC= 3.00D+00 Rises=F
 Iteration  1 RMS(Cart)=  0.04483695 RMS(Int)=  0.00031638
 Iteration  2 RMS(Cart)=  0.00025925 RMS(Int)=  0.00000000
 Iteration  3 RMS(Cart)=  0.00000000 RMS(Int)=  0.00000000
 ITry= 8 IFail=0 DXMaxC= 5.27D-02 DCOld= 1.00D+10 DXMaxT= 3.00D-01 DXLimC= 3.00D+00 Rises=F
 ClnCor:  largest displacement from symmetrization is 3.14D-15 for atom     3.
 Variable       Old X    -DE/DX   Delta X   Delta X   Delta X     New X
                                 (Linear)    (Quad)   (Total)
    R1       11.27850  -0.00100   0.00000   0.29019   0.08706  11.36556
    R2        1.85540   0.00003   0.00000  -0.00015  -0.00004   1.85535
    A1        0.02376  -0.00001   0.00000  -0.07611  -0.02283   0.00093
         Item               Value     Threshold  Converged?
 Maximum Force            0.001002     0.000450     NO 
 RMS     Force            0.000579     0.000300     NO 
 Maximum Displacement     0.052731     0.001800     NO 
 RMS     Displacement     0.044954     0.001200     NO 
 Predicted change in Energy= 8.572181D-05
 GradGradGradGradGradGradGradGradGradGradGradGradGradGradGradGradGradGrad

                          Input orientation:                          
 ---------------------------------------------------------------------
 Center     Atomic      Atomic             Coordinates (Angstroms)
 Number     Number       Type             X           Y           Z
 ---------------------------------------------------------------------
      1          8           0       -0.826830    4.428434    2.125959
      2         17           0        4.642557    1.931145    2.275197
      3          1           0        0.066037    4.020877    2.151223
 ---------------------------------------------------------------------
                    Distance matrix (angstroms):
                    1          2          3
     1  O    0.000000
     2  Cl   6.014393   0.000000
     3  H    0.981811   5.032583   0.000000
 This structure is nearly, but not quite of a higher symmetry.
 Consider Symm=Loose if the higher symmetry is desired.
 Stoichiometry    ClHO
 Framework group  C1[X(ClHO)]
 Deg. of freedom     3
 Full point group                 C1      NOp   1
 Omega: Change in point group or standard orientation.

 Old FWG=CS   [SG(Cl1H1O1)]
 New FWG=C01  [X(Cl1H1O1)]
 Largest Abelian subgroup         C1      NOp   1
 Largest concise Abelian subgroup C1      NOp   1
                         Standard orientation:                         
 ---------------------------------------------------------------------
 Center     Atomic      Atomic             Coordinates (Angstroms)
 Number     Number       Type             X           Y           Z
 ---------------------------------------------------------------------
      1          8           0        3.940817    0.059142   -0.478897
      2         17           0       -2.028990   -0.030503    0.246561
      3          1           0        2.966285    0.045410   -0.360359
 ---------------------------------------------------------------------
 Rotational constants (GHZ):   634241374.1490662           1.2424187           1.2424187
 Standard basis: SVP (5D, 7F)
 There are    39 symmetry adapted cartesian basis functions of A   symmetry.
 There are    37 symmetry adapted basis functions of A   symmetry.
    37 basis functions,    69 primitive gaussians,    39 cartesian basis functions
    13 alpha electrons       13 beta electrons
       nuclear repulsion energy        18.0653786879 Hartrees.
 NAtoms=    3 NActive=    3 NUniq=    3 SFac= 1.00D+00 NAtFMM=   60 NAOKFM=F Big=F
 Integral buffers will be    131072 words long.
 Raffenetti 2 integral format.
 Two-electron integral symmetry is turned on.
 Nuclear repulsion after empirical dispersion term =       18.0650789882 Hartrees.
 One-electron integrals computed using PRISM.
 NBasis=    37 RedAO= T EigKep=  5.60D-02  NBF=    37
 NBsUse=    37 1.00D-06 EigRej= -1.00D+00 NBFU=    37
 Initial guess from the checkpoint file:  "/tmp/Gau-24542.chk"
 B after Tr=    -0.000000   -0.000000    0.000000
         Rot=    0.706987   -0.000415   -0.086367    0.701933 Ang= -90.02 deg.
 ExpMin= 1.22D-01 ExpMax= 1.04D+04 ExpMxC= 1.57D+03 IAcc=2 IRadAn=         4 AccDes= 0.00D+00
 Harris functional with IExCor=  402 and IRadAn=       4 diagonalized for initial guess.
 HarFok:  IExCor=  402 AccDes= 0.00D+00 IRadAn=         4 IDoV= 1 UseB2=F ITyADJ=14
 ICtDFT=  3500011 ScaDFX=  1.000000  1.000000  1.000000  1.000000
 FoFCou: FMM=F IPFlag=           0 FMFlag=      100000 FMFlg1=           0
         NFxFlg=           0 DoJE=T BraDBF=F KetDBF=T FulRan=T
         wScrn=  0.000000 ICntrl=       500 IOpCl=  0 I1Cent=   200000004 NGrid=           0
         NMat0=    1 NMatS0=      1 NMatT0=    0 NMatD0=    1 NMtDS0=    0 NMtDT0=    0
 Petite list used in FoFCou.
 Keep R1 ints in memory in canonical form, NReq=7151157.
 Requested convergence on RMS density matrix=1.00D-08 within 128 cycles.
 Requested convergence on MAX density matrix=1.00D-06.
 Requested convergence on             energy=1.00D-06.
 No special actions if energy rises.
 Integral accuracy reduced to 1.0D-05 until final iterations.
 Initial convergence to 1.0D-05 achieved.  Increase integral accuracy.
 >>>>>>>>>> Convergence criterion not met.
 SCF Done:  E(RB3LYP) =  -535.579484615     A.U. after  129 cycles
            NFock=128  Conv=0.36D-04     -V/T= 2.0025
 Convergence failure -- run terminated.
 Error termination via Lnk1e in /share/apps/g16.a03/g16/l502.exe at Thu Mar  6 16:41:23 2025.
 Job cpu time:       0 days  0 hours  6 minutes 32.6 seconds.
 Elapsed time:       0 days  0 hours  0 minutes 50.4 seconds.
 File lengths (MBytes):  RWF=      6 Int=      0 D2E=      0 Chk=      1 Scr=      1
