 Entering Gaussian System, Link 0=g16
 Input=ts.gjf
 Output=ts.log
 Initial command:
 /share/apps/g16.a03/g16/l1.exe "/tmp/Gau-22860.inp" -scrdir="/tmp/"
 Entering Link 1 = /share/apps/g16.a03/g16/l1.exe PID=     22862.
  
 Copyright (c) 1988,1990,1992,1993,1995,1998,2003,2009,2016,
            Gaussian, Inc.  All Rights Reserved.
  
 This is part of the Gaussian(R) 16 program.  It is based on
 the Gaussian(R) 09 system (copyright 2009, Gaussian, Inc.),
 the Gaussian(R) 03 system (copyright 2003, Gaussian, Inc.),
 the Gaussian(R) 98 system (copyright 1998, Gaussian, Inc.),
 the Gaussian(R) 94 system (copyright 1995, Gaussian, Inc.),
 the Gaussian 92(TM) system (copyright 1992, Gaussian, Inc.),
 the Gaussian 90(TM) system (copyright 1990, Gaussian, Inc.),
 the Gaussian 88(TM) system (copyright 1988, Gaussian, Inc.),
 the Gaussian 86(TM) system (copyright 1986, Carnegie Mellon
 University), and the Gaussian 82(TM) system (copyright 1983,
 Carnegie Mellon University). Gaussian is a federally registered
 trademark of Gaussian, Inc.
  
 This software contains proprietary and confidential information,
 including trade secrets, belonging to Gaussian, Inc.
  
 This software is provided under written license and may be
 used, copied, transmitted, or stored only in accord with that
 written license.
  
 The following legend is applicable only to US Government
 contracts under FAR:
  
                    RESTRICTED RIGHTS LEGEND
  
 Use, reproduction and disclosure by the US Government is
 subject to restrictions as set forth in subparagraphs (a)
 and (c) of the Commercial Computer Software - Restricted
 Rights clause in FAR 52.227-19.
  
 Gaussian, Inc.
 340 Quinnipiac St., Bldg. 40, Wallingford CT 06492
  
  
 ---------------------------------------------------------------
 Warning -- This program may not be used in any manner that
 competes with the business of Gaussian, Inc. or will provide
 assistance to any competitor of Gaussian, Inc.  The licensee
 of this program is prohibited from giving any competitor of
 Gaussian, Inc. access to this program.  By using this program,
 the user acknowledges that Gaussian, Inc. is engaged in the
 business of creating and licensing software in the field of
 computational chemistry and represents and warrants to the
 licensee that it is not a competitor of Gaussian, Inc. and that
 it will not use this program in any manner prohibited above.
 ---------------------------------------------------------------
  

 Cite this work as:
 Gaussian 16, Revision A.03,
 M. J. Frisch, G. W. Trucks, H. B. Schlegel, G. E. Scuseria, 
 M. A. Robb, J. R. Cheeseman, G. Scalmani, V. Barone, 
 G. A. Petersson, H. Nakatsuji, X. Li, M. Caricato, A. V. Marenich, 
 J. Bloino, B. G. Janesko, R. Gomperts, B. Mennucci, H. P. Hratchian, 
 J. V. Ortiz, A. F. Izmaylov, J. L. Sonnenberg, D. Williams-Young, 
 F. Ding, F. Lipparini, F. Egidi, J. Goings, B. Peng, A. Petrone, 
 T. Henderson, D. Ranasinghe, V. G. Zakrzewski, J. Gao, N. Rega, 
 G. Zheng, W. Liang, M. Hada, M. Ehara, K. Toyota, R. Fukuda, 
 J. Hasegawa, M. Ishida, T. Nakajima, Y. Honda, O. Kitao, H. Nakai, 
 T. Vreven, K. Throssell, J. A. Montgomery, Jr., J. E. Peralta, 
 F. Ogliaro, M. J. Bearpark, J. J. Heyd, E. N. Brothers, K. N. Kudin, 
 V. N. Staroverov, T. A. Keith, R. Kobayashi, J. Normand, 
 K. Raghavachari, A. P. Rendell, J. C. Burant, S. S. Iyengar, 
 J. Tomasi, M. Cossi, J. M. Millam, M. Klene, C. Adamo, R. Cammi, 
 J. W. Ochterski, R. L. Martin, K. Morokuma, O. Farkas, 
 J. B. Foresman, and D. J. Fox, Gaussian, Inc., Wallingford CT, 2016.
 
 ******************************************
 Gaussian 16:  EM64L-G16RevA.03 25-Dec-2016
                 6-Mar-2025 
 ******************************************
 %nproc=8
 Will use up to    8 processors via shared memory.
 %mem=4000MB
 --------------------------------------------------------------------
 #opt=(noeigen,calcfc,ts,recalc=5,maxcyc=200) freq B3LYP/SVP em=GD3BJ
 --------------------------------------------------------------------
 1/5=1,6=200,10=4,11=1,18=20,26=3,38=1,71=5/1,3;
 2/9=110,12=2,17=6,18=5,40=1/2;
 3/5=18,7=101,11=2,25=1,30=1,71=2,74=-5,124=41,140=1/1,2,3;
 4//1;
 5/5=2,38=5/2;
 8/6=4,10=90,11=11/1;
 11/6=1,8=1,9=11,15=111,16=1/1,2,10;
 10/6=1,13=1/2;
 6/7=2,8=2,9=2,10=2,28=1/1;
 7/10=1,18=20,25=1/1,2,3,16;
 1/5=1,6=200,10=4,11=1,18=20,26=3,71=5/3(2);
 2/9=110/2;
 99//99;
 2/9=110/2;
 3/5=18,7=101,11=2,25=1,30=1,71=1,74=-5,124=41/1,2,3;
 4/5=5,16=3,69=1/1;
 5/5=2,38=5/2;
 7//1,2,3,16;
 1/5=1,6=200,11=1,18=20,26=3,71=5/3(-5);
 2/9=110/2;
 6/7=2,8=2,9=2,10=2,19=2,28=1/1;
 99/9=1/99;
 ----------
 ts-387.gjf
 ----------
 Symbolic Z-matrix:
 Charge =  0 Multiplicity = 1
 O                     2.57333   3.0406    0.06733 
 Cl                    2.58019   3.95427  -1.42442 
 H                     2.64662   3.67906   0.82452 
 

 GradGradGradGradGradGradGradGradGradGradGradGradGradGradGradGradGradGrad
 Berny optimization.
 Initialization pass.
                           ----------------------------
                           !    Initial Parameters    !
                           ! (Angstroms and Degrees)  !
 --------------------------                            --------------------------
 ! Name  Definition              Value          Derivative Info.                !
 --------------------------------------------------------------------------------
 ! R1    R(1,2)                  1.7493         calculate D2E/DX2 analytically  !
 ! R2    R(1,3)                  0.9931         calculate D2E/DX2 analytically  !
 ! A1    A(2,1,3)              108.3058         calculate D2E/DX2 analytically  !
 --------------------------------------------------------------------------------
 Trust Radius=3.00D-01 FncErr=1.00D-07 GrdErr=1.00D-06 EigMax=2.50D+02 EigMin=1.00D-04
 Number of steps in this run=    100 maximum allowed number of steps=    100.
 Search for a saddle point of order  1.
 GradGradGradGradGradGradGradGradGradGradGradGradGradGradGradGradGradGrad

                          Input orientation:                          
 ---------------------------------------------------------------------
 Center     Atomic      Atomic             Coordinates (Angstroms)
 Number     Number       Type             X           Y           Z
 ---------------------------------------------------------------------
      1          8           0        2.573330    3.040595    0.067331
      2         17           0        2.580194    3.954270   -1.424416
      3          1           0        2.646615    3.679059    0.824517
 ---------------------------------------------------------------------
                    Distance matrix (angstroms):
                    1          2          3
     1  O    0.000000
     2  Cl   1.749331   0.000000
     3  H    0.993145   2.266683   0.000000
 Stoichiometry    ClHO
 Framework group  CS[SG(ClHO)]
 Deg. of freedom     3
 Full point group                 CS      NOp   2
 Largest Abelian subgroup         CS      NOp   2
 Largest concise Abelian subgroup C1      NOp   1
                         Standard orientation:                         
 ---------------------------------------------------------------------
 Center     Atomic      Atomic             Coordinates (Angstroms)
 Number     Number       Type             X           Y           Z
 ---------------------------------------------------------------------
      1          8           0        0.036265    1.131796    0.000000
      2         17           0        0.036265   -0.617535   -0.000000
      3          1           0       -0.906621    1.443731    0.000000
 ---------------------------------------------------------------------
 Rotational constants (GHZ):         614.8781435          14.0767091          13.7616567
 Standard basis: SVP (5D, 7F)
 There are    29 symmetry adapted cartesian basis functions of A'  symmetry.
 There are    10 symmetry adapted cartesian basis functions of A"  symmetry.
 There are    27 symmetry adapted basis functions of A'  symmetry.
 There are    10 symmetry adapted basis functions of A"  symmetry.
    37 basis functions,    69 primitive gaussians,    39 cartesian basis functions
    13 alpha electrons       13 beta electrons
       nuclear repulsion energy        49.3718054673 Hartrees.
 NAtoms=    3 NActive=    3 NUniq=    3 SFac= 1.00D+00 NAtFMM=   60 NAOKFM=F Big=F
 Integral buffers will be    131072 words long.
 Raffenetti 2 integral format.
 Two-electron integral symmetry is turned on.
 Nuclear repulsion after empirical dispersion term =       49.3702001778 Hartrees.
 One-electron integrals computed using PRISM.
 NBasis=    37 RedAO= T EigKep=  3.81D-02  NBF=    27    10
 NBsUse=    37 1.00D-06 EigRej= -1.00D+00 NBFU=    27    10
 ExpMin= 1.22D-01 ExpMax= 1.04D+04 ExpMxC= 1.57D+03 IAcc=3 IRadAn=         5 AccDes= 0.00D+00
 Harris functional with IExCor=  402 and IRadAn=       5 diagonalized for initial guess.
 HarFok:  IExCor=  402 AccDes= 0.00D+00 IRadAn=         5 IDoV= 1 UseB2=F ITyADJ=14
 ICtDFT=  3500011 ScaDFX=  1.000000  1.000000  1.000000  1.000000
 FoFCou: FMM=F IPFlag=           0 FMFlag=      100000 FMFlg1=           0
         NFxFlg=           0 DoJE=T BraDBF=F KetDBF=T FulRan=T
         wScrn=  0.000000 ICntrl=       500 IOpCl=  0 I1Cent=   200000004 NGrid=           0
         NMat0=    1 NMatS0=      1 NMatT0=    0 NMatD0=    1 NMtDS0=    0 NMtDT0=    0
 Petite list used in FoFCou.
 Initial guess orbital symmetries:
       Occupied  (A') (A') (A') (A') (A') (A") (A') (A') (A') (A')
                 (A") (A') (A")
       Virtual   (A') (A') (A') (A') (A') (A") (A') (A') (A") (A')
                 (A") (A') (A") (A') (A') (A') (A") (A') (A') (A")
                 (A') (A") (A') (A')
 The electronic state of the initial guess is 1-A'.
 Keep R1 ints in memory in symmetry-blocked form, NReq=7153137.
 Requested convergence on RMS density matrix=1.00D-08 within 128 cycles.
 Requested convergence on MAX density matrix=1.00D-06.
 Requested convergence on             energy=1.00D-06.
 No special actions if energy rises.
 Integral accuracy reduced to 1.0D-05 until final iterations.
 Initial convergence to 1.0D-05 achieved.  Increase integral accuracy.
 SCF Done:  E(RB3LYP) =  -535.758230565     A.U. after   12 cycles
            NFock= 12  Conv=0.47D-08     -V/T= 2.0027
 DoSCS=F DFT=T ScalE2(SS,OS)=  1.000000  1.000000
 Range of M.O.s used for correlation:     1    37
 NBasis=    37 NAE=    13 NBE=    13 NFC=     0 NFV=     0
 NROrb=     37 NOA=    13 NOB=    13 NVA=    24 NVB=    24
 Symmetrizing basis deriv contribution to polar:
 IMax=3 JMax=2 DiffMx= 0.00D+00
 G2DrvN: will do     4 centers at a time, making    1 passes.
 Calling FoFCou, ICntrl=  3107 FMM=F I1Cent=   0 AccDes= 0.00D+00.
 End of G2Drv F.D. properties file   721 does not exist.
 End of G2Drv F.D. properties file   722 does not exist.
 End of G2Drv F.D. properties file   788 does not exist.
          IDoAtm=111
          Differentiating once with respect to nuclear coordinates.
 Keep R1 ints in memory in symmetry-blocked form, NReq=7127949.
          There are    12 degrees of freedom in the 1st order CPHF.  IDoFFX=6 NUNeed=     0.
      6 vectors produced by pass  0 Test12= 2.60D-15 8.33D-09 XBig12= 7.48D-02 1.98D-01.
 AX will form     6 AO Fock derivatives at one time.
      6 vectors produced by pass  1 Test12= 2.60D-15 8.33D-09 XBig12= 2.06D-02 7.44D-02.
      6 vectors produced by pass  2 Test12= 2.60D-15 8.33D-09 XBig12= 6.40D-04 6.62D-03.
      6 vectors produced by pass  3 Test12= 2.60D-15 8.33D-09 XBig12= 1.34D-05 1.12D-03.
      6 vectors produced by pass  4 Test12= 2.60D-15 8.33D-09 XBig12= 1.15D-07 1.06D-04.
      6 vectors produced by pass  5 Test12= 2.60D-15 8.33D-09 XBig12= 5.89D-10 7.83D-06.
      3 vectors produced by pass  6 Test12= 2.60D-15 8.33D-09 XBig12= 6.16D-13 2.95D-07.
 InvSVY:  IOpt=1 It=  1 EMax= 2.22D-16
 Solved reduced A of dimension    39 with     6 vectors.
 End of Minotr F.D. properties file   721 does not exist.
 End of Minotr F.D. properties file   722 does not exist.
 End of Minotr F.D. properties file   788 does not exist.

 **********************************************************************

            Population analysis using the SCF density.

 **********************************************************************

 Orbital symmetries:
       Occupied  (A') (A') (A') (A') (A') (A") (A') (A') (A') (A')
                 (A") (A') (A")
       Virtual   (A') (A') (A') (A') (A') (A") (A') (A') (A") (A')
                 (A") (A') (A") (A') (A') (A') (A") (A') (A') (A")
                 (A') (A") (A') (A')
 The electronic state is 1-A'.
 Alpha  occ. eigenvalues -- -101.54088 -19.19622  -9.49235  -7.26578  -7.24945
 Alpha  occ. eigenvalues --   -7.24911  -1.03012  -0.79227  -0.51825  -0.42200
 Alpha  occ. eigenvalues --   -0.39189  -0.31275  -0.28009
 Alpha virt. eigenvalues --   -0.08123   0.05647   0.45122   0.53584   0.69116
 Alpha virt. eigenvalues --    0.69804   0.71528   0.76250   0.76335   0.84125
 Alpha virt. eigenvalues --    0.84711   0.94644   0.99583   1.04548   1.11811
 Alpha virt. eigenvalues --    1.28146   1.42154   1.59451   2.11722   2.61757
 Alpha virt. eigenvalues --    2.81454   2.90220   2.92790   3.61662
          Condensed to atoms (all electrons):
               1          2          3
     1  O    7.899133   0.122701   0.296783
     2  Cl   0.122701  16.799694  -0.019924
     3  H    0.296783  -0.019924   0.502051
 Mulliken charges:
               1
     1  O   -0.318618
     2  Cl   0.097528
     3  H    0.221089
 Sum of Mulliken charges =   0.00000
 Mulliken charges with hydrogens summed into heavy atoms:
               1
     1  O   -0.097528
     2  Cl   0.097528
 APT charges:
               1
     1  O   -0.594107
     2  Cl   0.117106
     3  H    0.477000
 Sum of APT charges =   0.00000
 APT charges with hydrogens summed into heavy atoms:
               1
     1  O   -0.117106
     2  Cl   0.117106
 Electronic spatial extent (au):  <R**2>=            108.1918
 Charge=              0.0000 electrons
 Dipole moment (field-independent basis, Debye):
    X=             -1.6719    Y=              0.1724    Z=             -0.0000  Tot=              1.6808
 Quadrupole moment (field-independent basis, Debye-Ang):
   XX=            -16.6261   YY=            -15.7860   ZZ=            -18.6314
   XY=             -2.7853   XZ=              0.0000   YZ=             -0.0000
 Traceless Quadrupole moment (field-independent basis, Debye-Ang):
   XX=              0.3884   YY=              1.2285   ZZ=             -1.6169
   XY=             -2.7853   XZ=              0.0000   YZ=             -0.0000
 Octapole moment (field-independent basis, Debye-Ang**2):
  XXX=             -2.0965  YYY=              1.8082  ZZZ=             -0.0000  XYY=             -4.0526
  XXY=              3.3327  XXZ=             -0.0000  XZZ=             -0.2305  YZZ=              0.6062
  YYZ=             -0.0000  XYZ=              0.0000
 Hexadecapole moment (field-independent basis, Debye-Ang**3):
 XXXX=            -16.9703 YYYY=            -78.2160 ZZZZ=            -16.6556 XXXY=             -0.4304
 XXXZ=             -0.0000 YYYX=             -4.3482 YYYZ=             -0.0000 ZZZX=             -0.0000
 ZZZY=             -0.0000 XXYY=            -14.8657 XXZZ=             -5.8823 YYZZ=            -18.4660
 XXYZ=             -0.0000 YYXZ=              0.0000 ZZXY=              0.5718
 N-N= 4.937020017778D+01 E-N=-1.371734536194D+03  KE= 5.343000995851D+02
 Symmetry A'   KE= 4.835492181726D+02
 Symmetry A"   KE= 5.075088141249D+01
  Exact polarizability:   0.000   0.000   0.000   0.000   0.000   0.000
 Approx polarizability:  14.538  -1.838  37.994   0.000   0.000  10.119
 Calling FoFJK, ICntrl=    100147 FMM=F ISym2X=1 I1Cent= 0 IOpClX= 0 NMat=1 NMatS=1 NMatT=0.
 ***** Axes restored to original set *****
 -------------------------------------------------------------------
 Center     Atomic                   Forces (Hartrees/Bohr)
 Number     Number              X              Y              Z
 -------------------------------------------------------------------
      1        8           0.000561937    0.005942679    0.003889681
      2       17           0.000435939   -0.002961953    0.016875346
      3        1          -0.000997876   -0.002980726   -0.020765027
 -------------------------------------------------------------------
 Cartesian Forces:  Max     0.020765027 RMS     0.009342663
 FormGI is forming the generalized inverse of G from B-inverse, IUseBI=4.

 GradGradGradGradGradGradGradGradGradGradGradGradGradGradGradGradGradGrad
 Berny optimization.
 Internal  Forces:  Max     0.020853441 RMS     0.018315926
 Search for a saddle point.
 Step number   1 out of a maximum of  100
 All quantities printed in internal units (Hartrees-Bohrs-Radians)
 Swapping is turned off.
 Second derivative matrix not updated -- analytic derivatives used.
 The second derivative matrix:
                          R1        R2        A1
           R1           0.19165
           R2          -0.00952   0.43727
           A1           0.03949  -0.00295   0.16940
 ITU=  0
     Eigenvalues ---    0.13945   0.22115   0.43772
 Eigenvectors required to have negative eigenvalues:
                          A1        R1        R2
   1                    0.79640  -0.60467  -0.01145
 RFO step:  Lambda0=1.397818021D-01 Lambda=-3.65797759D-03.
 Linear search not attempted -- option 19 set.
 Iteration  1 RMS(Cart)=  0.07561237 RMS(Int)=  0.00055086
 Iteration  2 RMS(Cart)=  0.00064622 RMS(Int)=  0.00000022
 Iteration  3 RMS(Cart)=  0.00000016 RMS(Int)=  0.00000000
 ClnCor:  largest displacement from symmetrization is 1.39D-15 for atom     1.
 Variable       Old X    -DE/DX   Delta X   Delta X   Delta X     New X
                                 (Linear)    (Quad)   (Total)
    R1        3.30576  -0.01594   0.00000  -0.16436  -0.16436   3.14139
    R2        1.87677  -0.01782   0.00000  -0.04441  -0.04441   1.83236
    A1        1.89029  -0.02085   0.00000   0.02773   0.02773   1.91802
         Item               Value     Threshold  Converged?
 Maximum Force            0.020853     0.000450     NO 
 RMS     Force            0.018316     0.000300     NO 
 Maximum Displacement     0.091905     0.001800     NO 
 RMS     Displacement     0.075863     0.001200     NO 
 Predicted change in Energy= 6.690179D-06
 GradGradGradGradGradGradGradGradGradGradGradGradGradGradGradGradGradGrad

                          Input orientation:                          
 ---------------------------------------------------------------------
 Center     Atomic      Atomic             Coordinates (Angstroms)
 Number     Number       Type             X           Y           Z
 ---------------------------------------------------------------------
      1          8           0        2.574386    3.068330    0.044318
      2         17           0        2.580525    3.932449   -1.375782
      3          1           0        2.645228    3.673145    0.798896
 ---------------------------------------------------------------------
                    Distance matrix (angstroms):
                    1          2          3
     1  O    0.000000
     2  Cl   1.662354   0.000000
     3  H    0.969643   2.191038   0.000000
 Stoichiometry    ClHO
 Framework group  CS[SG(ClHO)]
 Deg. of freedom     3
 Full point group                 CS      NOp   2
 Largest Abelian subgroup         CS      NOp   2
 Largest concise Abelian subgroup C1      NOp   1
                         Standard orientation:                         
 ---------------------------------------------------------------------
 Center     Atomic      Atomic             Coordinates (Angstroms)
 Number     Number       Type             X           Y           Z
 ---------------------------------------------------------------------
      1          8           0        0.035068    1.074233   -0.000000
      2         17           0        0.035068   -0.588121    0.000000
      3          1           0       -0.876707    1.404192   -0.000000
 ---------------------------------------------------------------------
 Rotational constants (GHZ):         659.5928856          15.5400727          15.1823744
 Standard basis: SVP (5D, 7F)
 There are    29 symmetry adapted cartesian basis functions of A'  symmetry.
 There are    10 symmetry adapted cartesian basis functions of A"  symmetry.
 There are    27 symmetry adapted basis functions of A'  symmetry.
 There are    10 symmetry adapted basis functions of A"  symmetry.
    37 basis functions,    69 primitive gaussians,    39 cartesian basis functions
    13 alpha electrons       13 beta electrons
       nuclear repulsion energy        51.7646655097 Hartrees.
 NAtoms=    3 NActive=    3 NUniq=    3 SFac= 1.00D+00 NAtFMM=   60 NAOKFM=F Big=F
 Integral buffers will be    131072 words long.
 Raffenetti 2 integral format.
 Two-electron integral symmetry is turned on.
 Nuclear repulsion after empirical dispersion term =       51.7630522433 Hartrees.
 One-electron integrals computed using PRISM.
 NBasis=    37 RedAO= T EigKep=  3.27D-02  NBF=    27    10
 NBsUse=    37 1.00D-06 EigRej= -1.00D+00 NBFU=    27    10
 Initial guess from the checkpoint file:  "/tmp/Gau-22862.chk"
 B after Tr=     0.000000    0.000000   -0.000000
         Rot=    1.000000    0.000000    0.000000    0.000204 Ang=   0.02 deg.
 Initial guess orbital symmetries:
       Occupied  (A') (A') (A') (A') (A') (A") (A') (A') (A') (A')
                 (A") (A') (A")
       Virtual   (A') (A') (A') (A') (A') (A") (A') (A') (A") (A')
                 (A") (A') (A") (A') (A') (A') (A") (A') (A') (A")
                 (A') (A") (A') (A')
 ExpMin= 1.22D-01 ExpMax= 1.04D+04 ExpMxC= 1.57D+03 IAcc=2 IRadAn=         4 AccDes= 0.00D+00
 Harris functional with IExCor=  402 and IRadAn=       4 diagonalized for initial guess.
 HarFok:  IExCor=  402 AccDes= 0.00D+00 IRadAn=         4 IDoV= 1 UseB2=F ITyADJ=14
 ICtDFT=  3500011 ScaDFX=  1.000000  1.000000  1.000000  1.000000
 FoFCou: FMM=F IPFlag=           0 FMFlag=      100000 FMFlg1=           0
         NFxFlg=           0 DoJE=T BraDBF=F KetDBF=T FulRan=T
         wScrn=  0.000000 ICntrl=       500 IOpCl=  0 I1Cent=   200000004 NGrid=           0
         NMat0=    1 NMatS0=      1 NMatT0=    0 NMatD0=    1 NMtDS0=    0 NMtDT0=    0
 Petite list used in FoFCou.
 Keep R1 ints in memory in symmetry-blocked form, NReq=7153137.
 Requested convergence on RMS density matrix=1.00D-08 within 128 cycles.
 Requested convergence on MAX density matrix=1.00D-06.
 Requested convergence on             energy=1.00D-06.
 No special actions if energy rises.
 Integral accuracy reduced to 1.0D-05 until final iterations.
 Initial convergence to 1.0D-05 achieved.  Increase integral accuracy.
 SCF Done:  E(RB3LYP) =  -535.757762179     A.U. after   11 cycles
            NFock= 11  Conv=0.69D-08     -V/T= 2.0024
 Calling FoFJK, ICntrl=      2127 FMM=F ISym2X=1 I1Cent= 0 IOpClX= 0 NMat=1 NMatS=1 NMatT=0.
 ***** Axes restored to original set *****
 -------------------------------------------------------------------
 Center     Atomic                   Forces (Hartrees/Bohr)
 Number     Number              X              Y              Z
 -------------------------------------------------------------------
      1        8          -0.000963605   -0.025433790    0.021226807
      2       17           0.000541289    0.016670281   -0.016285427
      3        1           0.000422316    0.008763509   -0.004941380
 -------------------------------------------------------------------
 Cartesian Forces:  Max     0.025433790 RMS     0.013917154

 GradGradGradGradGradGradGradGradGradGradGradGradGradGradGradGradGradGrad
 Berny optimization.
 FormGI is forming the generalized inverse of G from B-inverse, IUseBI=4.
 Internal  Forces:  Max     0.022579685 RMS     0.016771387
 Search for a saddle point.
 Step number   2 out of a maximum of  100
 All quantities printed in internal units (Hartrees-Bohrs-Radians)
 Swapping is turned off.
 Update second derivatives using D2CorX and points    1    2
 The second derivative matrix:
                          R1        R2        A1
           R1           0.24208
           R2          -0.00042   0.43889
           A1           0.04527  -0.00181   0.16977
 ITU=  0  0
     Eigenvalues ---    0.14798   0.26386   0.43890
 Eigenvectors required to have negative eigenvalues:
                          A1        R1        R2
   1                    0.90114  -0.43350   0.00499
 RFO step:  Lambda0=1.524786503D-01 Lambda=-5.94508450D-04.
 Linear search not attempted -- option 19 set.
 Iteration  1 RMS(Cart)=  0.04910992 RMS(Int)=  0.00108741
 Iteration  2 RMS(Cart)=  0.00081654 RMS(Int)=  0.00000010
 Iteration  3 RMS(Cart)=  0.00000013 RMS(Int)=  0.00000000
 ClnCor:  largest displacement from symmetrization is 2.75D-15 for atom     3.
 Variable       Old X    -DE/DX   Delta X   Delta X   Delta X     New X
                                 (Linear)    (Quad)   (Total)
    R1        3.14139   0.02258   0.00000   0.02197   0.02197   3.16336
    R2        1.83236   0.00165   0.00000   0.00442   0.00442   1.83678
    A1        1.91802  -0.01820   0.00000   0.06304   0.06304   1.98106
         Item               Value     Threshold  Converged?
 Maximum Force            0.022580     0.000450     NO 
 RMS     Force            0.016771     0.000300     NO 
 Maximum Displacement     0.051662     0.001800     NO 
 RMS     Displacement     0.048894     0.001200     NO 
 Predicted change in Energy= 1.106325D-03
 GradGradGradGradGradGradGradGradGradGradGradGradGradGradGradGradGradGrad

                          Input orientation:                          
 ---------------------------------------------------------------------
 Center     Atomic      Atomic             Coordinates (Angstroms)
 Number     Number       Type             X           Y           Z
 ---------------------------------------------------------------------
      1          8           0        2.575606    3.086189    0.043688
      2         17           0        2.579286    3.929255   -1.402490
      3          1           0        2.645247    3.658480    0.826234
 ---------------------------------------------------------------------
                    Distance matrix (angstroms):
                    1          2          3
     1  O    0.000000
     2  Cl   1.673978   0.000000
     3  H    0.971980   2.246081   0.000000
 Stoichiometry    ClHO
 Framework group  CS[SG(ClHO)]
 Deg. of freedom     3
 Full point group                 CS      NOp   2
 Largest Abelian subgroup         CS      NOp   2
 Largest concise Abelian subgroup C1      NOp   1
                         Standard orientation:                         
 ---------------------------------------------------------------------
 Center     Atomic      Atomic             Coordinates (Angstroms)
 Number     Number       Type             X           Y           Z
 ---------------------------------------------------------------------
      1          8           0        0.034282    1.079613   -0.000000
      2         17           0        0.034282   -0.594365    0.000000
      3          1           0       -0.857038    1.467292   -0.000000
 ---------------------------------------------------------------------
 Rotational constants (GHZ):         693.6827297          15.2484016          14.9204237
 Standard basis: SVP (5D, 7F)
 There are    29 symmetry adapted cartesian basis functions of A'  symmetry.
 There are    10 symmetry adapted cartesian basis functions of A"  symmetry.
 There are    27 symmetry adapted basis functions of A'  symmetry.
 There are    10 symmetry adapted basis functions of A"  symmetry.
    37 basis functions,    69 primitive gaussians,    39 cartesian basis functions
    13 alpha electrons       13 beta electrons
       nuclear repulsion energy        51.3529171091 Hartrees.
 NAtoms=    3 NActive=    3 NUniq=    3 SFac= 1.00D+00 NAtFMM=   60 NAOKFM=F Big=F
 Integral buffers will be    131072 words long.
 Raffenetti 2 integral format.
 Two-electron integral symmetry is turned on.
 Nuclear repulsion after empirical dispersion term =       51.3513085667 Hartrees.
 One-electron integrals computed using PRISM.
 NBasis=    37 RedAO= T EigKep=  3.40D-02  NBF=    27    10
 NBsUse=    37 1.00D-06 EigRej= -1.00D+00 NBFU=    27    10
 Initial guess from the checkpoint file:  "/tmp/Gau-22862.chk"
 B after Tr=    -0.000000   -0.000000    0.000000
         Rot=    0.999997    0.000000   -0.000000    0.002388 Ang=   0.27 deg.
 Initial guess orbital symmetries:
       Occupied  (A') (A') (A') (A') (A') (A") (A') (A') (A') (A')
                 (A") (A') (A")
       Virtual   (A') (A') (A') (A') (A') (A") (A') (A') (A") (A')
                 (A") (A') (A") (A') (A') (A') (A") (A') (A') (A")
                 (A') (A") (A') (A')
 ExpMin= 1.22D-01 ExpMax= 1.04D+04 ExpMxC= 1.57D+03 IAcc=2 IRadAn=         4 AccDes= 0.00D+00
 Harris functional with IExCor=  402 and IRadAn=       4 diagonalized for initial guess.
 HarFok:  IExCor=  402 AccDes= 0.00D+00 IRadAn=         4 IDoV= 1 UseB2=F ITyADJ=14
 ICtDFT=  3500011 ScaDFX=  1.000000  1.000000  1.000000  1.000000
 FoFCou: FMM=F IPFlag=           0 FMFlag=      100000 FMFlg1=           0
         NFxFlg=           0 DoJE=T BraDBF=F KetDBF=T FulRan=T
         wScrn=  0.000000 ICntrl=       500 IOpCl=  0 I1Cent=   200000004 NGrid=           0
         NMat0=    1 NMatS0=      1 NMatT0=    0 NMatD0=    1 NMtDS0=    0 NMtDT0=    0
 Petite list used in FoFCou.
 Keep R1 ints in memory in symmetry-blocked form, NReq=7153137.
 Requested convergence on RMS density matrix=1.00D-08 within 128 cycles.
 Requested convergence on MAX density matrix=1.00D-06.
 Requested convergence on             energy=1.00D-06.
 No special actions if energy rises.
 Integral accuracy reduced to 1.0D-05 until final iterations.
 Initial convergence to 1.0D-05 achieved.  Increase integral accuracy.
 SCF Done:  E(RB3LYP) =  -535.756623174     A.U. after   11 cycles
            NFock= 11  Conv=0.46D-08     -V/T= 2.0025
 Calling FoFJK, ICntrl=      2127 FMM=F ISym2X=1 I1Cent= 0 IOpClX= 0 NMat=1 NMatS=1 NMatT=0.
 ***** Axes restored to original set *****
 -------------------------------------------------------------------
 Center     Atomic                   Forces (Hartrees/Bohr)
 Number     Number              X              Y              Z
 -------------------------------------------------------------------
      1        8          -0.001315196   -0.027875742    0.016457462
      2       17           0.000784180    0.014800503   -0.006481378
      3        1           0.000531016    0.013075238   -0.009976084
 -------------------------------------------------------------------
 Cartesian Forces:  Max     0.027875742 RMS     0.013258452

 GradGradGradGradGradGradGradGradGradGradGradGradGradGradGradGradGradGrad
 Berny optimization.
 FormGI is forming the generalized inverse of G from B-inverse, IUseBI=4.
 Internal  Forces:  Max     0.030218547 RMS     0.019006018
 Search for a saddle point.
 Step number   3 out of a maximum of  100
 All quantities printed in internal units (Hartrees-Bohrs-Radians)
 Swapping is turned off.
 Update second derivatives using D2CorX and points    1    2    3
 The second derivative matrix:
                          R1        R2        A1
           R1           0.25525
           R2           0.00147   0.43921
           A1           0.06204  -0.00040   0.16904
 ITU=  0  0  0
     Eigenvalues ---    0.13660   0.28768   0.43923
 Eigenvectors required to have negative eigenvalues:
                          A1        R1        R2
   1                    0.88616  -0.46337   0.00342
 RFO step:  Lambda0=1.440808199D-01 Lambda=-2.06525933D-05.
 Linear search not attempted -- option 19 set.
 Iteration  1 RMS(Cart)=  0.00479127 RMS(Int)=  0.00000536
 Iteration  2 RMS(Cart)=  0.00000473 RMS(Int)=  0.00000000
 Iteration  3 RMS(Cart)=  0.00000000 RMS(Int)=  0.00000000
 ClnCor:  largest displacement from symmetrization is 2.00D-15 for atom     3.
 Variable       Old X    -DE/DX   Delta X   Delta X   Delta X     New X
                                 (Linear)    (Quad)   (Total)
    R1        3.16336   0.01306   0.00000  -0.01142  -0.01142   3.15194
    R2        1.83678  -0.00030   0.00000  -0.00037  -0.00037   1.83641
    A1        1.98106  -0.03022   0.00000   0.00358   0.00358   1.98465
         Item               Value     Threshold  Converged?
 Maximum Force            0.030219     0.000450     NO 
 RMS     Force            0.019006     0.000300     NO 
 Maximum Displacement     0.005060     0.001800     NO 
 RMS     Displacement     0.004792     0.001200     NO 
 Predicted change in Energy= 2.724908D-04
 GradGradGradGradGradGradGradGradGradGradGradGradGradGradGradGradGradGrad

                          Input orientation:                          
 ---------------------------------------------------------------------
 Center     Atomic      Atomic             Coordinates (Angstroms)
 Number     Number       Type             X           Y           Z
 ---------------------------------------------------------------------
      1          8           0        2.575669    3.088277    0.041529
      2         17           0        2.579276    3.927642   -1.399812
      3          1           0        2.645194    3.658005    0.825714
 ---------------------------------------------------------------------
                    Distance matrix (angstroms):
                    1          2          3
     1  O    0.000000
     2  Cl   1.667936   0.000000
     3  H    0.971787   2.242770   0.000000
 Stoichiometry    ClHO
 Framework group  CS[SG(ClHO)]
 Deg. of freedom     3
 Full point group                 CS      NOp   2
 Largest Abelian subgroup         CS      NOp   2
 Largest concise Abelian subgroup C1      NOp   1
                         Standard orientation:                         
 ---------------------------------------------------------------------
 Center     Atomic      Atomic             Coordinates (Angstroms)
 Number     Number       Type             X           Y           Z
 ---------------------------------------------------------------------
      1          8           0        0.034221    1.075543   -0.000000
      2         17           0        0.034221   -0.592393    0.000000
      3          1           0       -0.855526    1.466337   -0.000000
 ---------------------------------------------------------------------
 Rotational constants (GHZ):         696.4378279          15.3524459          15.0213124
 Standard basis: SVP (5D, 7F)
 There are    29 symmetry adapted cartesian basis functions of A'  symmetry.
 There are    10 symmetry adapted cartesian basis functions of A"  symmetry.
 There are    27 symmetry adapted basis functions of A'  symmetry.
 There are    10 symmetry adapted basis functions of A"  symmetry.
    37 basis functions,    69 primitive gaussians,    39 cartesian basis functions
    13 alpha electrons       13 beta electrons
       nuclear repulsion energy        51.5154299370 Hartrees.
 NAtoms=    3 NActive=    3 NUniq=    3 SFac= 1.00D+00 NAtFMM=   60 NAOKFM=F Big=F
 Integral buffers will be    131072 words long.
 Raffenetti 2 integral format.
 Two-electron integral symmetry is turned on.
 Nuclear repulsion after empirical dispersion term =       51.5138209808 Hartrees.
 One-electron integrals computed using PRISM.
 NBasis=    37 RedAO= T EigKep=  3.36D-02  NBF=    27    10
 NBsUse=    37 1.00D-06 EigRej= -1.00D+00 NBFU=    27    10
 Initial guess from the checkpoint file:  "/tmp/Gau-22862.chk"
 B after Tr=     0.000000    0.000000   -0.000000
         Rot=    1.000000   -0.000000   -0.000000    0.000040 Ang=   0.00 deg.
 Initial guess orbital symmetries:
       Occupied  (A') (A') (A') (A') (A') (A") (A') (A') (A') (A')
                 (A") (A') (A")
       Virtual   (A') (A') (A') (A') (A') (A") (A') (A') (A") (A')
                 (A") (A') (A") (A') (A') (A') (A") (A') (A') (A")
                 (A') (A") (A') (A')
 Keep R1 ints in memory in symmetry-blocked form, NReq=7153137.
 Requested convergence on RMS density matrix=1.00D-08 within 128 cycles.
 Requested convergence on MAX density matrix=1.00D-06.
 Requested convergence on             energy=1.00D-06.
 No special actions if energy rises.
 SCF Done:  E(RB3LYP) =  -535.756348164     A.U. after    8 cycles
            NFock=  8  Conv=0.42D-08     -V/T= 2.0025
 Calling FoFJK, ICntrl=      2127 FMM=F ISym2X=1 I1Cent= 0 IOpClX= 0 NMat=1 NMatS=1 NMatT=0.
 ***** Axes restored to original set *****
 -------------------------------------------------------------------
 Center     Atomic                   Forces (Hartrees/Bohr)
 Number     Number              X              Y              Z
 -------------------------------------------------------------------
      1        8          -0.001335925   -0.029586965    0.019044477
      2       17           0.000795013    0.016406911   -0.009136607
      3        1           0.000540912    0.013180054   -0.009907870
 -------------------------------------------------------------------
 Cartesian Forces:  Max     0.029586965 RMS     0.014396504

 GradGradGradGradGradGradGradGradGradGradGradGradGradGradGradGradGradGrad
 Berny optimization.
 FormGI is forming the generalized inverse of G from B-inverse, IUseBI=4.
 Internal  Forces:  Max     0.030292768 RMS     0.019821274
 Search for a saddle point.
 Step number   4 out of a maximum of  100
 All quantities printed in internal units (Hartrees-Bohrs-Radians)
 Swapping is turned off.
 Update second derivatives using D2CorX and points    1    2    3    4
 The second derivative matrix:
                          R1        R2        A1
           R1           0.28675
           R2          -0.00730   0.43775
           A1           0.04816   0.00312   0.17442
 ITU=  0  0  0  0
     Eigenvalues ---    0.15649   0.30432   0.43810
 Eigenvectors required to have negative eigenvalues:
                          A1        R1        R2
   1                    0.93741  -0.34768  -0.01941
 RFO step:  Lambda0=1.635612615D-01 Lambda=-7.12713147D-05.
 Linear search not attempted -- option 19 set.
 Iteration  1 RMS(Cart)=  0.01505500 RMS(Int)=  0.00009860
 Iteration  2 RMS(Cart)=  0.00008024 RMS(Int)=  0.00000000
 Iteration  3 RMS(Cart)=  0.00000000 RMS(Int)=  0.00000000
 ClnCor:  largest displacement from symmetrization is 1.54D-15 for atom     3.
 Variable       Old X    -DE/DX   Delta X   Delta X   Delta X     New X
                                 (Linear)    (Quad)   (Total)
    R1        3.15194   0.01615   0.00000   0.00888   0.00888   3.16083
    R2        1.83641  -0.00023   0.00000  -0.00213  -0.00213   1.83428
    A1        1.98465  -0.03029   0.00000   0.01948   0.01948   2.00413
         Item               Value     Threshold  Converged?
 Maximum Force            0.030293     0.000450     NO 
 RMS     Force            0.019821     0.000300     NO 
 Maximum Displacement     0.015890     0.001800     NO 
 RMS     Displacement     0.015024     0.001200     NO 
 Predicted change in Energy= 4.998379D-04
 GradGradGradGradGradGradGradGradGradGradGradGradGradGradGradGradGradGrad

                          Input orientation:                          
 ---------------------------------------------------------------------
 Center     Atomic      Atomic             Coordinates (Angstroms)
 Number     Number       Type             X           Y           Z
 ---------------------------------------------------------------------
      1          8           0        2.576117    3.094203    0.042458
      2         17           0        2.578898    3.926811   -1.408221
      3          1           0        2.645124    3.652911    0.833195
 ---------------------------------------------------------------------
                    Distance matrix (angstroms):
                    1          2          3
     1  O    0.000000
     2  Cl   1.672637   0.000000
     3  H    0.970660   2.259060   0.000000
 Stoichiometry    ClHO
 Framework group  CS[SG(ClHO)]
 Deg. of freedom     3
 Full point group                 CS      NOp   2
 Largest Abelian subgroup         CS      NOp   2
 Largest concise Abelian subgroup C1      NOp   1
                         Standard orientation:                         
 ---------------------------------------------------------------------
 Center     Atomic      Atomic             Coordinates (Angstroms)
 Number     Number       Type             X           Y           Z
 ---------------------------------------------------------------------
      1          8           0        0.033882    1.077971   -0.000000
      2         17           0        0.033882   -0.594666    0.000000
      3          1           0       -0.847062    1.485548   -0.000000
 ---------------------------------------------------------------------
 Rotational constants (GHZ):         711.4461354          15.2443843          14.9245903
 Standard basis: SVP (5D, 7F)
 There are    29 symmetry adapted cartesian basis functions of A'  symmetry.
 There are    10 symmetry adapted cartesian basis functions of A"  symmetry.
 There are    27 symmetry adapted basis functions of A'  symmetry.
 There are    10 symmetry adapted basis functions of A"  symmetry.
    37 basis functions,    69 primitive gaussians,    39 cartesian basis functions
    13 alpha electrons       13 beta electrons
       nuclear repulsion energy        51.3703068155 Hartrees.
 NAtoms=    3 NActive=    3 NUniq=    3 SFac= 1.00D+00 NAtFMM=   60 NAOKFM=F Big=F
 Integral buffers will be    131072 words long.
 Raffenetti 2 integral format.
 Two-electron integral symmetry is turned on.
 Nuclear repulsion after empirical dispersion term =       51.3686994331 Hartrees.
 One-electron integrals computed using PRISM.
 NBasis=    37 RedAO= T EigKep=  3.41D-02  NBF=    27    10
 NBsUse=    37 1.00D-06 EigRej= -1.00D+00 NBFU=    27    10
 Initial guess from the checkpoint file:  "/tmp/Gau-22862.chk"
 B after Tr=    -0.000000   -0.000000   -0.000000
         Rot=    1.000000   -0.000000    0.000000    0.000824 Ang=   0.09 deg.
 Initial guess orbital symmetries:
       Occupied  (A') (A') (A') (A') (A') (A") (A') (A') (A') (A')
                 (A") (A') (A")
       Virtual   (A') (A') (A') (A') (A') (A") (A') (A') (A") (A')
                 (A") (A') (A") (A') (A') (A') (A") (A') (A') (A")
                 (A') (A") (A') (A')
 Keep R1 ints in memory in symmetry-blocked form, NReq=7153137.
 Requested convergence on RMS density matrix=1.00D-08 within 128 cycles.
 Requested convergence on MAX density matrix=1.00D-06.
 Requested convergence on             energy=1.00D-06.
 No special actions if energy rises.
 SCF Done:  E(RB3LYP) =  -535.755849997     A.U. after    8 cycles
            NFock=  8  Conv=0.54D-08     -V/T= 2.0025
 Calling FoFJK, ICntrl=      2127 FMM=F ISym2X=1 I1Cent= 0 IOpClX= 0 NMat=1 NMatS=1 NMatT=0.
 ***** Axes restored to original set *****
 -------------------------------------------------------------------
 Center     Atomic                   Forces (Hartrees/Bohr)
 Number     Number              X              Y              Z
 -------------------------------------------------------------------
      1        8          -0.001579130   -0.031209451    0.015623382
      2       17           0.000869681    0.015600042   -0.005698002
      3        1           0.000709449    0.015609409   -0.009925380
 -------------------------------------------------------------------
 Cartesian Forces:  Max     0.031209451 RMS     0.014297896

 GradGradGradGradGradGradGradGradGradGradGradGradGradGradGradGradGradGrad
 Berny optimization.
 FormGI is forming the generalized inverse of G from B-inverse, IUseBI=4.
 Internal  Forces:  Max     0.033909309 RMS     0.020914582
 Search for a saddle point.
 Step number   5 out of a maximum of  100
 All quantities printed in internal units (Hartrees-Bohrs-Radians)
 Swapping is turned off.
 Update second derivatives using D2CorX and points    2    3    4    5
 The second derivative matrix:
                          R1        R2        A1
           R1           0.28666
           R2          -0.00796   0.43604
           A1           0.04526  -0.00925   0.16401
 ITU=  0  0  0  0
     Eigenvalues ---    0.14898   0.30075   0.43698
 Eigenvectors required to have negative eigenvalues:
                          A1        R1        R2
   1                    0.95013  -0.31108   0.02199
 RFO step:  Lambda0=1.572880619D-01 Lambda=-1.51435268D-05.
 Linear search not attempted -- option 19 set.
 Iteration  1 RMS(Cart)=  0.00684665 RMS(Int)=  0.00002015
 Iteration  2 RMS(Cart)=  0.00001475 RMS(Int)=  0.00000000
 Iteration  3 RMS(Cart)=  0.00000000 RMS(Int)=  0.00000000
 ClnCor:  largest displacement from symmetrization is 4.00D-15 for atom     3.
 Variable       Old X    -DE/DX   Delta X   Delta X   Delta X     New X
                                 (Linear)    (Quad)   (Total)
    R1        3.16083   0.01271   0.00000   0.00291   0.00291   3.16374
    R2        1.83428   0.00095   0.00000   0.00427   0.00427   1.83855
    A1        2.00413  -0.03391   0.00000   0.00784   0.00784   2.01197
         Item               Value     Threshold  Converged?
 Maximum Force            0.033909     0.000450     NO 
 RMS     Force            0.020915     0.000300     NO 
 Maximum Displacement     0.008324     0.001800     NO 
 RMS     Displacement     0.006849     0.001200     NO 
 Predicted change in Energy= 2.358074D-04
 GradGradGradGradGradGradGradGradGradGradGradGradGradGradGradGradGradGrad

                          Input orientation:                          
 ---------------------------------------------------------------------
 Center     Atomic      Atomic             Coordinates (Angstroms)
 Number     Number       Type             X           Y           Z
 ---------------------------------------------------------------------
      1          8           0        2.576219    3.096037    0.041772
      2         17           0        2.578731    3.926447   -1.411940
      3          1           0        2.645189    3.651441    0.837600
 ---------------------------------------------------------------------
                    Distance matrix (angstroms):
                    1          2          3
     1  O    0.000000
     2  Cl   1.674177   0.000000
     3  H    0.972919   2.267262   0.000000
 Stoichiometry    ClHO
 Framework group  CS[SG(ClHO)]
 Deg. of freedom     3
 Full point group                 CS      NOp   2
 Largest Abelian subgroup         CS      NOp   2
 Largest concise Abelian subgroup C1      NOp   1
                         Standard orientation:                         
 ---------------------------------------------------------------------
 Center     Atomic      Atomic             Coordinates (Angstroms)
 Number     Number       Type             X           Y           Z
 ---------------------------------------------------------------------
      1          8           0        0.033837    1.078676   -0.000000
      2         17           0        0.033837   -0.595501    0.000000
      3          1           0       -0.845926    1.494114   -0.000000
 ---------------------------------------------------------------------
 Rotational constants (GHZ):         713.8592466          15.2056740          14.8885383
 Standard basis: SVP (5D, 7F)
 There are    29 symmetry adapted cartesian basis functions of A'  symmetry.
 There are    10 symmetry adapted cartesian basis functions of A"  symmetry.
 There are    27 symmetry adapted basis functions of A'  symmetry.
 There are    10 symmetry adapted basis functions of A"  symmetry.
    37 basis functions,    69 primitive gaussians,    39 cartesian basis functions
    13 alpha electrons       13 beta electrons
       nuclear repulsion energy        51.3062027025 Hartrees.
 NAtoms=    3 NActive=    3 NUniq=    3 SFac= 1.00D+00 NAtFMM=   60 NAOKFM=F Big=F
 Integral buffers will be    131072 words long.
 Raffenetti 2 integral format.
 Two-electron integral symmetry is turned on.
 Nuclear repulsion after empirical dispersion term =       51.3045960919 Hartrees.
 One-electron integrals computed using PRISM.
 NBasis=    37 RedAO= T EigKep=  3.43D-02  NBF=    27    10
 NBsUse=    37 1.00D-06 EigRej= -1.00D+00 NBFU=    27    10
 Initial guess from the checkpoint file:  "/tmp/Gau-22862.chk"
 B after Tr=     0.000000    0.000000    0.000000
         Rot=    1.000000   -0.000000    0.000000    0.000254 Ang=   0.03 deg.
 Initial guess orbital symmetries:
       Occupied  (A') (A') (A') (A') (A') (A") (A') (A') (A') (A')
                 (A") (A') (A")
       Virtual   (A') (A') (A') (A') (A') (A") (A') (A') (A") (A')
                 (A") (A') (A") (A') (A') (A') (A") (A') (A') (A")
                 (A') (A") (A') (A')
 Keep R1 ints in memory in symmetry-blocked form, NReq=7153137.
 Requested convergence on RMS density matrix=1.00D-08 within 128 cycles.
 Requested convergence on MAX density matrix=1.00D-06.
 Requested convergence on             energy=1.00D-06.
 No special actions if energy rises.
 SCF Done:  E(RB3LYP) =  -535.755613391     A.U. after    8 cycles
            NFock=  8  Conv=0.57D-08     -V/T= 2.0025
 Calling FoFJK, ICntrl=      2127 FMM=F ISym2X=1 I1Cent= 0 IOpClX= 0 NMat=1 NMatS=1 NMatT=0.
 ***** Axes restored to original set *****
 -------------------------------------------------------------------
 Center     Atomic                   Forces (Hartrees/Bohr)
 Number     Number              X              Y              Z
 -------------------------------------------------------------------
      1        8          -0.001491868   -0.030454079    0.016533848
      2       17           0.000900149    0.015411685   -0.004552725
      3        1           0.000591720    0.015042394   -0.011981124
 -------------------------------------------------------------------
 Cartesian Forces:  Max     0.030454079 RMS     0.014268354

 GradGradGradGradGradGradGradGradGradGradGradGradGradGradGradGradGradGrad
 Berny optimization.
 FormGI is forming the generalized inverse of G from B-inverse, IUseBI=4.
 Internal  Forces:  Max     0.035306710 RMS     0.021466841
 Search for a saddle point.
 Step number   6 out of a maximum of  100
 All quantities printed in internal units (Hartrees-Bohrs-Radians)
 Swapping is turned off.
 Second derivative matrix not updated -- analytic derivatives used.
 The second derivative matrix:
                          R1        R2        A1
           R1           0.28666
           R2          -0.00796   0.43604
           A1           0.04526  -0.00925   0.16401
 ITU=  0  0  0  0
     Eigenvalues ---    0.14898   0.30075   0.43698
 Eigenvectors required to have negative eigenvalues:
                          A1        R1        R2
   1                    0.95013  -0.31108   0.02199
 RFO step:  Lambda0=1.577425250D-01 Lambda=-2.90420114D-07.
 Linear search not attempted -- option 19 set.
 Iteration  1 RMS(Cart)=  0.00054122 RMS(Int)=  0.00000022
 Iteration  2 RMS(Cart)=  0.00000026 RMS(Int)=  0.00000000
 ClnCor:  largest displacement from symmetrization is 9.93D-16 for atom     3.
 Variable       Old X    -DE/DX   Delta X   Delta X   Delta X     New X
                                 (Linear)    (Quad)   (Total)
    R1        3.16374   0.01160   0.00000  -0.00017  -0.00017   3.16357
    R2        1.83855  -0.00117   0.00000  -0.00079  -0.00079   1.83776
    A1        2.01197  -0.03531   0.00000   0.00082   0.00082   2.01279
         Item               Value     Threshold  Converged?
 Maximum Force            0.035307     0.000450     NO 
 RMS     Force            0.021467     0.000300     NO 
 Maximum Displacement     0.000714     0.001800     YES
 RMS     Displacement     0.000541     0.001200     YES
 Predicted change in Energy= 3.022240D-05
 GradGradGradGradGradGradGradGradGradGradGradGradGradGradGradGradGradGrad

                          Input orientation:                          
 ---------------------------------------------------------------------
 Center     Atomic      Atomic             Coordinates (Angstroms)
 Number     Number       Type             X           Y           Z
 ---------------------------------------------------------------------
      1          8           0        2.576248    3.096415    0.041847
      2         17           0        2.578720    3.926344   -1.412038
      3          1           0        2.645171    3.651166    0.837622
 ---------------------------------------------------------------------
                    Distance matrix (angstroms):
                    1          2          3
     1  O    0.000000
     2  Cl   1.674088   0.000000
     3  H    0.972500   2.267401   0.000000
 Stoichiometry    ClHO
 Framework group  CS[SG(ClHO)]
 Deg. of freedom     3
 Full point group                 CS      NOp   2
 Largest Abelian subgroup         CS      NOp   2
 Largest concise Abelian subgroup C1      NOp   1
                         Standard orientation:                         
 ---------------------------------------------------------------------
 Center     Atomic      Atomic             Coordinates (Angstroms)
 Number     Number       Type             X           Y           Z
 ---------------------------------------------------------------------
      1          8           0        0.033809    1.078596   -0.000000
      2         17           0        0.033809   -0.595491    0.000000
      3          1           0       -0.845233    1.494579    0.000000
 ---------------------------------------------------------------------
 Rotational constants (GHZ):         715.0660677          15.2065140          14.8898677
 Standard basis: SVP (5D, 7F)
 There are    29 symmetry adapted cartesian basis functions of A'  symmetry.
 There are    10 symmetry adapted cartesian basis functions of A"  symmetry.
 There are    27 symmetry adapted basis functions of A'  symmetry.
 There are    10 symmetry adapted basis functions of A"  symmetry.
    37 basis functions,    69 primitive gaussians,    39 cartesian basis functions
    13 alpha electrons       13 beta electrons
       nuclear repulsion energy        51.3101181592 Hartrees.
 NAtoms=    3 NActive=    3 NUniq=    3 SFac= 1.00D+00 NAtFMM=   60 NAOKFM=F Big=F
 Integral buffers will be    131072 words long.
 Raffenetti 2 integral format.
 Two-electron integral symmetry is turned on.
 Nuclear repulsion after empirical dispersion term =       51.3085115644 Hartrees.
 One-electron integrals computed using PRISM.
 NBasis=    37 RedAO= T EigKep=  3.43D-02  NBF=    27    10
 NBsUse=    37 1.00D-06 EigRej= -1.00D+00 NBFU=    27    10
 Initial guess from the checkpoint file:  "/tmp/Gau-22862.chk"
 B after Tr=    -0.000000   -0.000000    0.000000
         Rot=    1.000000   -0.000000    0.000000    0.000041 Ang=   0.00 deg.
 Initial guess orbital symmetries:
       Occupied  (A') (A') (A') (A') (A') (A") (A') (A') (A') (A')
                 (A") (A') (A")
       Virtual   (A') (A') (A') (A') (A') (A") (A') (A') (A") (A')
                 (A") (A') (A") (A') (A') (A') (A") (A') (A') (A")
                 (A') (A") (A') (A')
 Keep R1 ints in memory in symmetry-blocked form, NReq=7153137.
 Requested convergence on RMS density matrix=1.00D-08 within 128 cycles.
 Requested convergence on MAX density matrix=1.00D-06.
 Requested convergence on             energy=1.00D-06.
 No special actions if energy rises.
 SCF Done:  E(RB3LYP) =  -535.755583154     A.U. after    6 cycles
            NFock=  6  Conv=0.91D-08     -V/T= 2.0025
 Calling FoFJK, ICntrl=      2127 FMM=F ISym2X=1 I1Cent= 0 IOpClX= 0 NMat=1 NMatS=1 NMatT=0.
 ***** Axes restored to original set *****
 -------------------------------------------------------------------
 Center     Atomic                   Forces (Hartrees/Bohr)
 Number     Number              X              Y              Z
 -------------------------------------------------------------------
      1        8          -0.001526176   -0.030782782    0.016233950
      2       17           0.000903057    0.015446452   -0.004539933
      3        1           0.000623119    0.015336330   -0.011694017
 -------------------------------------------------------------------
 Cartesian Forces:  Max     0.030782782 RMS     0.014320967

 GradGradGradGradGradGradGradGradGradGradGradGradGradGradGradGradGradGrad
 Berny optimization.
 FormGI is forming the generalized inverse of G from B-inverse, IUseBI=4.
 Internal  Forces:  Max     0.035431861 RMS     0.021530007
 Search for a saddle point.
 Step number   7 out of a maximum of  100
 All quantities printed in internal units (Hartrees-Bohrs-Radians)
 Swapping is turned off.
 Update second derivatives using D2CorX and points    4    5    7
 The second derivative matrix:
                          R1        R2        A1
           R1           0.28300
           R2          -0.00095   0.45609
           A1           0.03860   0.01646   0.15689
 ITU=  0  0  0  0
     Eigenvalues ---    0.14518   0.29380   0.45700
 Eigenvectors required to have negative eigenvalues:
                          A1        R1        R2
   1                    0.96156  -0.26967  -0.05173
 RFO step:  Lambda0=1.541343305D-01 Lambda=-2.49592590D-05.
 Linear search not attempted -- option 19 set.
 Iteration  1 RMS(Cart)=  0.00640499 RMS(Int)=  0.00002192
 Iteration  2 RMS(Cart)=  0.00002369 RMS(Int)=  0.00000000
 Iteration  3 RMS(Cart)=  0.00000000 RMS(Int)=  0.00000000
 ClnCor:  largest displacement from symmetrization is 2.75D-15 for atom     3.
 Variable       Old X    -DE/DX   Delta X   Delta X   Delta X     New X
                                 (Linear)    (Quad)   (Total)
    R1        3.16357   0.01160   0.00000   0.00321   0.00321   3.16678
    R2        1.83776  -0.00078   0.00000  -0.00637  -0.00637   1.83139
    A1        2.01279  -0.03543   0.00000   0.00901   0.00901   2.02180
         Item               Value     Threshold  Converged?
 Maximum Force            0.035432     0.000450     NO 
 RMS     Force            0.021530     0.000300     NO 
 Maximum Displacement     0.006580     0.001800     NO 
 RMS     Displacement     0.006393     0.001200     NO 
 Predicted change in Energy= 2.942477D-04
 GradGradGradGradGradGradGradGradGradGradGradGradGradGradGradGradGradGrad

                          Input orientation:                          
 ---------------------------------------------------------------------
 Center     Atomic      Atomic             Coordinates (Angstroms)
 Number     Number       Type             X           Y           Z
 ---------------------------------------------------------------------
      1          8           0        2.576539    3.099897    0.043140
      2         17           0        2.578569    3.925792   -1.414995
      3          1           0        2.645030    3.648235    0.839286
 ---------------------------------------------------------------------
                    Distance matrix (angstroms):
                    1          2          3
     1  O    0.000000
     2  Cl   1.675788   0.000000
     3  H    0.969130   2.272275   0.000000
 Stoichiometry    ClHO
 Framework group  CS[SG(ClHO)]
 Deg. of freedom     3
 Full point group                 CS      NOp   2
 Largest Abelian subgroup         CS      NOp   2
 Largest concise Abelian subgroup C1      NOp   1
                         Standard orientation:                         
 ---------------------------------------------------------------------
 Center     Atomic      Atomic             Coordinates (Angstroms)
 Number     Number       Type             X           Y           Z
 ---------------------------------------------------------------------
      1          8           0        0.033547    1.079461    0.000000
      2         17           0        0.033547   -0.596327   -0.000000
      3          1           0       -0.838679    1.501876    0.000000
 ---------------------------------------------------------------------
 Rotational constants (GHZ):         726.6794212          15.1674596          14.8573527
 Standard basis: SVP (5D, 7F)
 There are    29 symmetry adapted cartesian basis functions of A'  symmetry.
 There are    10 symmetry adapted cartesian basis functions of A"  symmetry.
 There are    27 symmetry adapted basis functions of A'  symmetry.
 There are    10 symmetry adapted basis functions of A"  symmetry.
    37 basis functions,    69 primitive gaussians,    39 cartesian basis functions
    13 alpha electrons       13 beta electrons
       nuclear repulsion energy        51.2731239874 Hartrees.
 NAtoms=    3 NActive=    3 NUniq=    3 SFac= 1.00D+00 NAtFMM=   60 NAOKFM=F Big=F
 Integral buffers will be    131072 words long.
 Raffenetti 2 integral format.
 Two-electron integral symmetry is turned on.
 Nuclear repulsion after empirical dispersion term =       51.2715179243 Hartrees.
 One-electron integrals computed using PRISM.
 NBasis=    37 RedAO= T EigKep=  3.44D-02  NBF=    27    10
 NBsUse=    37 1.00D-06 EigRej= -1.00D+00 NBFU=    27    10
 Initial guess from the checkpoint file:  "/tmp/Gau-22862.chk"
 B after Tr=    -0.000000    0.000000    0.000000
         Rot=    1.000000   -0.000000    0.000000    0.000453 Ang=   0.05 deg.
 Initial guess orbital symmetries:
       Occupied  (A') (A') (A') (A') (A') (A") (A') (A') (A') (A')
                 (A") (A') (A")
       Virtual   (A') (A') (A') (A') (A') (A") (A') (A') (A") (A')
                 (A") (A') (A") (A') (A') (A') (A") (A') (A') (A")
                 (A') (A") (A') (A')
 Keep R1 ints in memory in symmetry-blocked form, NReq=7153137.
 Requested convergence on RMS density matrix=1.00D-08 within 128 cycles.
 Requested convergence on MAX density matrix=1.00D-06.
 Requested convergence on             energy=1.00D-06.
 No special actions if energy rises.
 SCF Done:  E(RB3LYP) =  -535.755286507     A.U. after    8 cycles
            NFock=  8  Conv=0.52D-08     -V/T= 2.0025
 Calling FoFJK, ICntrl=      2127 FMM=F ISym2X=1 I1Cent= 0 IOpClX= 0 NMat=1 NMatS=1 NMatT=0.
 ***** Axes restored to original set *****
 -------------------------------------------------------------------
 Center     Atomic                   Forces (Hartrees/Bohr)
 Number     Number              X              Y              Z
 -------------------------------------------------------------------
      1        8          -0.001831968   -0.033206246    0.012634180
      2       17           0.000936921    0.015191755   -0.003184015
      3        1           0.000895047    0.018014491   -0.009450164
 -------------------------------------------------------------------
 Cartesian Forces:  Max     0.033206246 RMS     0.014613796

 GradGradGradGradGradGradGradGradGradGradGradGradGradGradGradGradGradGrad
 Berny optimization.
 FormGI is forming the generalized inverse of G from B-inverse, IUseBI=4.
 Internal  Forces:  Max     0.037009972 RMS     0.022220070
 Search for a saddle point.
 Step number   8 out of a maximum of  100
 All quantities printed in internal units (Hartrees-Bohrs-Radians)
 Swapping is turned off.
 Update second derivatives using D2CorX and points    5    6    7    8
 The second derivative matrix:
                          R1        R2        A1
           R1           0.28399
           R2          -0.01183   0.49144
           A1           0.03941  -0.01120   0.15319
 ITU=  0  0  0  0
     Eigenvalues ---    0.14207   0.29390   0.49266
 Eigenvectors required to have negative eigenvalues:
                          A1        R1        R2
   1                    0.96378  -0.26582   0.02190
 RFO step:  Lambda0=1.517565799D-01 Lambda=-2.26672282D-05.
 Linear search not attempted -- option 19 set.
 Iteration  1 RMS(Cart)=  0.00582118 RMS(Int)=  0.00001865
 Iteration  2 RMS(Cart)=  0.00001532 RMS(Int)=  0.00000000
 Iteration  3 RMS(Cart)=  0.00000000 RMS(Int)=  0.00000000
 ClnCor:  largest displacement from symmetrization is 1.68D-15 for atom     3.
 Variable       Old X    -DE/DX   Delta X   Delta X   Delta X     New X
                                 (Linear)    (Quad)   (Total)
    R1        3.16678   0.01026   0.00000  -0.00129  -0.00129   3.16549
    R2        1.83139   0.00249   0.00000   0.00694   0.00694   1.83833
    A1        2.02180  -0.03701   0.00000   0.00655   0.00655   2.02836
         Item               Value     Threshold  Converged?
 Maximum Force            0.037010     0.000450     NO 
 RMS     Force            0.022220     0.000300     NO 
 Maximum Displacement     0.007764     0.001800     NO 
 RMS     Displacement     0.005827     0.001200     NO 
 Predicted change in Energy= 2.531423D-04
 GradGradGradGradGradGradGradGradGradGradGradGradGradGradGradGradGradGrad

                          Input orientation:                          
 ---------------------------------------------------------------------
 Center     Atomic      Atomic             Coordinates (Angstroms)
 Number     Number       Type             X           Y           Z
 ---------------------------------------------------------------------
      1          8           0        2.576569    3.101332    0.041292
      2         17           0        2.578436    3.925114   -1.417254
      3          1           0        2.645134    3.647478    0.843394
 ---------------------------------------------------------------------
                    Distance matrix (angstroms):
                    1          2          3
     1  O    0.000000
     2  Cl   1.675105   0.000000
     3  H    0.972803   2.278610   0.000000
 Stoichiometry    ClHO
 Framework group  CS[SG(ClHO)]
 Deg. of freedom     3
 Full point group                 CS      NOp   2
 Largest Abelian subgroup         CS      NOp   2
 Largest concise Abelian subgroup C1      NOp   1
                         Standard orientation:                         
 ---------------------------------------------------------------------
 Center     Atomic      Atomic             Coordinates (Angstroms)
 Number     Number       Type             X           Y           Z
 ---------------------------------------------------------------------
      1          8           0        0.033567    1.078733   -0.000000
      2         17           0        0.033567   -0.596373    0.000000
      3          1           0       -0.839167    1.508478   -0.000000
 ---------------------------------------------------------------------
 Rotational constants (GHZ):         726.3566057          15.1689009          14.8586007
 Standard basis: SVP (5D, 7F)
 There are    29 symmetry adapted cartesian basis functions of A'  symmetry.
 There are    10 symmetry adapted cartesian basis functions of A"  symmetry.
 There are    27 symmetry adapted basis functions of A'  symmetry.
 There are    10 symmetry adapted basis functions of A"  symmetry.
    37 basis functions,    69 primitive gaussians,    39 cartesian basis functions
    13 alpha electrons       13 beta electrons
       nuclear repulsion energy        51.2631253679 Hartrees.
 NAtoms=    3 NActive=    3 NUniq=    3 SFac= 1.00D+00 NAtFMM=   60 NAOKFM=F Big=F
 Integral buffers will be    131072 words long.
 Raffenetti 2 integral format.
 Two-electron integral symmetry is turned on.
 Nuclear repulsion after empirical dispersion term =       51.2615198626 Hartrees.
 One-electron integrals computed using PRISM.
 NBasis=    37 RedAO= T EigKep=  3.45D-02  NBF=    27    10
 NBsUse=    37 1.00D-06 EigRej= -1.00D+00 NBFU=    27    10
 Initial guess from the checkpoint file:  "/tmp/Gau-22862.chk"
 B after Tr=     0.000000    0.000000   -0.000000
         Rot=    1.000000   -0.000000   -0.000000    0.000136 Ang=   0.02 deg.
 Initial guess orbital symmetries:
       Occupied  (A') (A') (A') (A') (A') (A") (A') (A') (A') (A')
                 (A") (A') (A")
       Virtual   (A') (A') (A') (A') (A') (A") (A') (A') (A") (A')
                 (A") (A') (A") (A') (A') (A') (A") (A') (A') (A")
                 (A') (A") (A') (A')
 Keep R1 ints in memory in symmetry-blocked form, NReq=7153137.
 Requested convergence on RMS density matrix=1.00D-08 within 128 cycles.
 Requested convergence on MAX density matrix=1.00D-06.
 Requested convergence on             energy=1.00D-06.
 No special actions if energy rises.
 SCF Done:  E(RB3LYP) =  -535.755032323     A.U. after    8 cycles
            NFock=  8  Conv=0.68D-08     -V/T= 2.0025
 Calling FoFJK, ICntrl=      2127 FMM=F ISym2X=1 I1Cent= 0 IOpClX= 0 NMat=1 NMatS=1 NMatT=0.
 ***** Axes restored to original set *****
 -------------------------------------------------------------------
 Center     Atomic                   Forces (Hartrees/Bohr)
 Number     Number              X              Y              Z
 -------------------------------------------------------------------
      1        8          -0.001630571   -0.031997320    0.015713591
      2       17           0.000961151    0.015539262   -0.003183301
      3        1           0.000669420    0.016458058   -0.012530289
 -------------------------------------------------------------------
 Cartesian Forces:  Max     0.031997320 RMS     0.014735648

 GradGradGradGradGradGradGradGradGradGradGradGradGradGradGradGradGradGrad
 Berny optimization.
 FormGI is forming the generalized inverse of G from B-inverse, IUseBI=4.
 Internal  Forces:  Max     0.037996463 RMS     0.022754441
 Search for a saddle point.
 Step number   9 out of a maximum of  100
 All quantities printed in internal units (Hartrees-Bohrs-Radians)
 Swapping is turned off.
 Update second derivatives using D2CorX and points    6    7    8    9
 The second derivative matrix:
                          R1        R2        A1
           R1           0.28412
           R2          -0.00995   0.50522
           A1           0.04265   0.00267   0.15607
 ITU=  0  0  0  0
     Eigenvalues ---    0.14308   0.29666   0.50567
 Eigenvectors required to have negative eigenvalues:
                          A1        R1        R2
   1                    0.95679  -0.29040  -0.01504
 RFO step:  Lambda0=1.531987887D-01 Lambda=-9.36217177D-06.
 Linear search not attempted -- option 19 set.
 Iteration  1 RMS(Cart)=  0.00293434 RMS(Int)=  0.00000511
 Iteration  2 RMS(Cart)=  0.00000608 RMS(Int)=  0.00000000
 Iteration  3 RMS(Cart)=  0.00000000 RMS(Int)=  0.00000000
 ClnCor:  largest displacement from symmetrization is 9.23D-16 for atom     1.
 Variable       Old X    -DE/DX   Delta X   Delta X   Delta X     New X
                                 (Linear)    (Quad)   (Total)
    R1        3.16549   0.01041   0.00000  -0.00496  -0.00496   3.16053
    R2        1.83833  -0.00104   0.00000  -0.00338  -0.00338   1.83495
    A1        2.02836  -0.03800   0.00000   0.00362   0.00362   2.03198
         Item               Value     Threshold  Converged?
 Maximum Force            0.037996     0.000450     NO 
 RMS     Force            0.022754     0.000300     NO 
 Maximum Displacement     0.003726     0.001800     NO 
 RMS     Displacement     0.002935     0.001200     NO 
 Predicted change in Energy= 1.922504D-04
 GradGradGradGradGradGradGradGradGradGradGradGradGradGradGradGradGradGrad

                          Input orientation:                          
 ---------------------------------------------------------------------
 Center     Atomic      Atomic             Coordinates (Angstroms)
 Number     Number       Type             X           Y           Z
 ---------------------------------------------------------------------
      1          8           0        2.576690    3.103304    0.040862
      2         17           0        2.578408    3.924194   -1.416300
      3          1           0        2.645041    3.646427    0.842870
 ---------------------------------------------------------------------
                    Distance matrix (angstroms):
                    1          2          3
     1  O    0.000000
     2  Cl   1.672479   0.000000
     3  H    0.971016   2.277157   0.000000
 Stoichiometry    ClHO
 Framework group  CS[SG(ClHO)]
 Deg. of freedom     3
 Full point group                 CS      NOp   2
 Largest Abelian subgroup         CS      NOp   2
 Largest concise Abelian subgroup C1      NOp   1
                         Standard orientation:                         
 ---------------------------------------------------------------------
 Center     Atomic      Atomic             Coordinates (Angstroms)
 Number     Number       Type             X           Y           Z
 ---------------------------------------------------------------------
      1          8           0        0.033445    1.076924   -0.000000
      2         17           0        0.033445   -0.595555    0.000000
      3          1           0       -0.836126    1.509033   -0.000000
 ---------------------------------------------------------------------
 Rotational constants (GHZ):         731.8587192          15.2122590          14.9024988
 Standard basis: SVP (5D, 7F)
 There are    29 symmetry adapted cartesian basis functions of A'  symmetry.
 There are    10 symmetry adapted cartesian basis functions of A"  symmetry.
 There are    27 symmetry adapted basis functions of A'  symmetry.
 There are    10 symmetry adapted basis functions of A"  symmetry.
    37 basis functions,    69 primitive gaussians,    39 cartesian basis functions
    13 alpha electrons       13 beta electrons
       nuclear repulsion energy        51.3411254369 Hartrees.
 NAtoms=    3 NActive=    3 NUniq=    3 SFac= 1.00D+00 NAtFMM=   60 NAOKFM=F Big=F
 Integral buffers will be    131072 words long.
 Raffenetti 2 integral format.
 Two-electron integral symmetry is turned on.
 Nuclear repulsion after empirical dispersion term =       51.3395197558 Hartrees.
 One-electron integrals computed using PRISM.
 NBasis=    37 RedAO= T EigKep=  3.43D-02  NBF=    27    10
 NBsUse=    37 1.00D-06 EigRej= -1.00D+00 NBFU=    27    10
 Initial guess from the checkpoint file:  "/tmp/Gau-22862.chk"
 B after Tr=     0.000000    0.000000   -0.000000
         Rot=    1.000000   -0.000000    0.000000    0.000143 Ang=   0.02 deg.
 Initial guess orbital symmetries:
       Occupied  (A') (A') (A') (A') (A') (A") (A') (A') (A') (A')
                 (A") (A') (A")
       Virtual   (A') (A') (A') (A') (A') (A") (A') (A') (A") (A')
                 (A") (A') (A") (A') (A') (A') (A") (A') (A') (A")
                 (A') (A") (A') (A')
 Keep R1 ints in memory in symmetry-blocked form, NReq=7153137.
 Requested convergence on RMS density matrix=1.00D-08 within 128 cycles.
 Requested convergence on MAX density matrix=1.00D-06.
 Requested convergence on             energy=1.00D-06.
 No special actions if energy rises.
 SCF Done:  E(RB3LYP) =  -535.754840143     A.U. after    8 cycles
            NFock=  8  Conv=0.20D-08     -V/T= 2.0025
 Calling FoFJK, ICntrl=      2127 FMM=F ISym2X=1 I1Cent= 0 IOpClX= 0 NMat=1 NMatS=1 NMatT=0.
 ***** Axes restored to original set *****
 -------------------------------------------------------------------
 Center     Atomic                   Forces (Hartrees/Bohr)
 Number     Number              X              Y              Z
 -------------------------------------------------------------------
      1        8          -0.001769514   -0.033837544    0.015430530
      2       17           0.000972024    0.016233588   -0.004168287
      3        1           0.000797490    0.017603956   -0.011262243
 -------------------------------------------------------------------
 Cartesian Forces:  Max     0.033837544 RMS     0.015295003

 GradGradGradGradGradGradGradGradGradGradGradGradGradGradGradGradGradGrad
 Berny optimization.
 FormGI is forming the generalized inverse of G from B-inverse, IUseBI=4.
 Internal  Forces:  Max     0.038358299 RMS     0.023139395
 Search for a saddle point.
 Step number  10 out of a maximum of  100
 All quantities printed in internal units (Hartrees-Bohrs-Radians)
 Swapping is turned off.
 Update second derivatives using D2CorX and points    7    8    9   10
 The second derivative matrix:
                          R1        R2        A1
           R1           0.27960
           R2          -0.01208   0.50617
           A1           0.04450   0.00127   0.16203
 ITU=  0  0  0  0
     Eigenvalues ---    0.14702   0.29397   0.50681
 Eigenvectors required to have negative eigenvalues:
                          A1        R1        R2
   1                    0.94755  -0.31929  -0.01409
 RFO step:  Lambda0=1.572229608D-01 Lambda=-5.35107963D-06.
 Linear search not attempted -- option 19 set.
 Iteration  1 RMS(Cart)=  0.00238439 RMS(Int)=  0.00000256
 Iteration  2 RMS(Cart)=  0.00000227 RMS(Int)=  0.00000000
 Iteration  3 RMS(Cart)=  0.00000000 RMS(Int)=  0.00000000
 ClnCor:  largest displacement from symmetrization is 9.93D-16 for atom     2.
 Variable       Old X    -DE/DX   Delta X   Delta X   Delta X     New X
                                 (Linear)    (Quad)   (Total)
    R1        3.16053   0.01160   0.00000  -0.00540  -0.00540   3.15513
    R2        1.83495   0.00060   0.00000  -0.00008  -0.00008   1.83487
    A1        2.03198  -0.03836   0.00000   0.00268   0.00268   2.03466
         Item               Value     Threshold  Converged?
 Maximum Force            0.038358     0.000450     NO 
 RMS     Force            0.023139     0.000300     NO 
 Maximum Displacement     0.002462     0.001800     NO 
 RMS     Displacement     0.002385     0.001200     NO 
 Predicted change in Energy= 1.694335D-04
 GradGradGradGradGradGradGradGradGradGradGradGradGradGradGradGradGradGrad

                          Input orientation:                          
 ---------------------------------------------------------------------
 Center     Atomic      Atomic             Coordinates (Angstroms)
 Number     Number       Type             X           Y           Z
 ---------------------------------------------------------------------
      1          8           0        2.576740    3.104606    0.039790
      2         17           0        2.578388    3.923351   -1.415301
      3          1           0        2.645012    3.645967    0.842943
 ---------------------------------------------------------------------
                    Distance matrix (angstroms):
                    1          2          3
     1  O    0.000000
     2  Cl   1.669621   0.000000
     3  H    0.970972   2.276191   0.000000
 Stoichiometry    ClHO
 Framework group  CS[SG(ClHO)]
 Deg. of freedom     3
 Full point group                 CS      NOp   2
 Largest Abelian subgroup         CS      NOp   2
 Largest concise Abelian subgroup C1      NOp   1
                         Standard orientation:                         
 ---------------------------------------------------------------------
 Center     Atomic      Atomic             Coordinates (Angstroms)
 Number     Number       Type             X           Y           Z
 ---------------------------------------------------------------------
      1          8           0        0.033399    1.074967    0.000000
      2         17           0        0.033399   -0.594654   -0.000000
      3          1           0       -0.834973    1.509384   -0.000000
 ---------------------------------------------------------------------
 Rotational constants (GHZ):         734.0973759          15.2598926          14.9491405
 Standard basis: SVP (5D, 7F)
 There are    29 symmetry adapted cartesian basis functions of A'  symmetry.
 There are    10 symmetry adapted cartesian basis functions of A"  symmetry.
 There are    27 symmetry adapted basis functions of A'  symmetry.
 There are    10 symmetry adapted basis functions of A"  symmetry.
    37 basis functions,    69 primitive gaussians,    39 cartesian basis functions
    13 alpha electrons       13 beta electrons
       nuclear repulsion energy        51.4166571051 Hartrees.
 NAtoms=    3 NActive=    3 NUniq=    3 SFac= 1.00D+00 NAtFMM=   60 NAOKFM=F Big=F
 Integral buffers will be    131072 words long.
 Raffenetti 2 integral format.
 Two-electron integral symmetry is turned on.
 Nuclear repulsion after empirical dispersion term =       51.4150512728 Hartrees.
[...]
 ITU=  0  0  0  0
     Eigenvalues ---    0.14361   0.29381   0.50699
 Eigenvectors required to have negative eigenvalues:
                          A1        R1        R2
   1                    0.95575  -0.29399  -0.01063
 RFO step:  Lambda0=1.546044004D-01 Lambda= 0.00000000D+00.
 Linear search not attempted -- option 19 set.
 Iteration  1 RMS(Cart)=  0.00000008 RMS(Int)=  0.00000000
 ClnCor:  largest displacement from symmetrization is 1.11D-15 for atom     3.
 Variable       Old X    -DE/DX   Delta X   Delta X   Delta X     New X
                                 (Linear)    (Quad)   (Total)
    R1        3.15757   0.01212   0.00000  -0.00000  -0.00000   3.15757
    R2        1.83520   0.00044   0.00000   0.00000   0.00000   1.83520
    A1        2.03941  -0.03940   0.00000   0.00000   0.00000   2.03941
         Item               Value     Threshold  Converged?
 Maximum Force            0.039400     0.000450     NO 
 RMS     Force            0.023801     0.000300     NO 
 Maximum Displacement     0.000000     0.001800     YES
 RMS     Displacement     0.000000     0.001200     YES
 Predicted change in Energy= 4.173128D-09
 GradGradGradGradGradGradGradGradGradGradGradGradGradGradGradGradGradGrad

                          Input orientation:                          
 ---------------------------------------------------------------------
 Center     Atomic      Atomic             Coordinates (Angstroms)
 Number     Number       Type             X           Y           Z
 ---------------------------------------------------------------------
      1          8           0        2.576839    3.105958    0.039932
      2         17           0        2.578292    3.923174   -1.417500
      3          1           0        2.645008    3.644792    0.845000
 ---------------------------------------------------------------------
                    Distance matrix (angstroms):
                    1          2          3
     1  O    0.000000
     2  Cl   1.670913   0.000000
     3  H    0.971146   2.280538   0.000000
 Stoichiometry    ClHO
 Framework group  CS[SG(ClHO)]
 Deg. of freedom     3
 Full point group                 CS      NOp   2
 Largest Abelian subgroup         CS      NOp   2
 Largest concise Abelian subgroup C1      NOp   1
                         Standard orientation:                         
 ---------------------------------------------------------------------
 Center     Atomic      Atomic             Coordinates (Angstroms)
 Number     Number       Type             X           Y           Z
 ---------------------------------------------------------------------
      1          8           0        0.033325    1.075651    0.000000
      2         17           0        0.033325   -0.595263    0.000000
      3          1           0       -0.833128    1.514266   -0.000000
 ---------------------------------------------------------------------
 Rotational constants (GHZ):         737.6181258          15.2307840          14.9226521
 Standard basis: SVP (5D, 7F)
 There are    29 symmetry adapted cartesian basis functions of A'  symmetry.
 There are    10 symmetry adapted cartesian basis functions of A"  symmetry.
 There are    27 symmetry adapted basis functions of A'  symmetry.
 There are    10 symmetry adapted basis functions of A"  symmetry.
    37 basis functions,    69 primitive gaussians,    39 cartesian basis functions
    13 alpha electrons       13 beta electrons
       nuclear repulsion energy        51.3749968979 Hartrees.
 NAtoms=    3 NActive=    3 NUniq=    3 SFac= 1.00D+00 NAtFMM=   60 NAOKFM=F Big=F
 Integral buffers will be    131072 words long.
 Raffenetti 2 integral format.
 Two-electron integral symmetry is turned on.
 Nuclear repulsion after empirical dispersion term =       51.3733915120 Hartrees.
 One-electron integrals computed using PRISM.
 NBasis=    37 RedAO= T EigKep=  3.43D-02  NBF=    27    10
 NBsUse=    37 1.00D-06 EigRej= -1.00D+00 NBFU=    27    10
 Initial guess from the checkpoint file:  "/tmp/Gau-22862.chk"
 B after Tr=    -0.000000    0.000000    0.000000
         Rot=    1.000000    0.000000   -0.000000    0.000000 Ang=   0.00 deg.
 Initial guess orbital symmetries:
       Occupied  (A') (A') (A') (A') (A') (A") (A') (A') (A') (A')
                 (A") (A') (A")
       Virtual   (A') (A') (A') (A') (A') (A") (A') (A') (A") (A')
                 (A") (A') (A") (A') (A') (A') (A") (A') (A') (A")
                 (A') (A") (A') (A')
 Keep R1 ints in memory in symmetry-blocked form, NReq=7153137.
 Requested convergence on RMS density matrix=1.00D-08 within 128 cycles.
 Requested convergence on MAX density matrix=1.00D-06.
 Requested convergence on             energy=1.00D-06.
 No special actions if energy rises.
 SCF Done:  E(RB3LYP) =  -535.754516362     A.U. after    2 cycles
            NFock=  2  Conv=0.78D-08     -V/T= 2.0025
 Calling FoFJK, ICntrl=      2127 FMM=F ISym2X=1 I1Cent= 0 IOpClX= 0 NMat=1 NMatS=1 NMatT=0.
 ***** Axes restored to original set *****
 -------------------------------------------------------------------
 Center     Atomic                   Forces (Hartrees/Bohr)
 Number     Number              X              Y              Z
 -------------------------------------------------------------------
      1        8          -0.001812234   -0.034818342    0.016102978
      2       17           0.000997664    0.016775724   -0.004486759
      3        1           0.000814571    0.018042618   -0.011616218
 -------------------------------------------------------------------
 Cartesian Forces:  Max     0.034818342 RMS     0.015771262

 GradGradGradGradGradGradGradGradGradGradGradGradGradGradGradGradGradGrad
 Berny optimization.
 Internal  Forces:  Max     0.039399947 RMS     0.023800736
 Search for a saddle point.
 Step number  99 out of a maximum of  100
 All quantities printed in internal units (Hartrees-Bohrs-Radians)
 Swapping is turned off.
 Update second derivatives using D2CorX and points   99
 The second derivative matrix:
                          R1        R2        A1
           R1           0.28135
           R2          -0.01106   0.50645
           A1           0.04225   0.00063   0.15661
 ITU=  0  0  0  0
     Eigenvalues ---    0.14361   0.29381   0.50699
 Eigenvectors required to have negative eigenvalues:
                          A1        R1        R2
   1                    0.95575  -0.29399  -0.01063
 RFO step:  Lambda0=1.546044182D-01 Lambda= 0.00000000D+00.
 Linear search not attempted -- option 19 set.
 Iteration  1 RMS(Cart)=  0.00000004 RMS(Int)=  0.00000000
 ClnCor:  largest displacement from symmetrization is 9.99D-16 for atom     1.
 Variable       Old X    -DE/DX   Delta X   Delta X   Delta X     New X
                                 (Linear)    (Quad)   (Total)
    R1        3.15757   0.01212   0.00000  -0.00000  -0.00000   3.15757
    R2        1.83520   0.00044   0.00000  -0.00000  -0.00000   1.83520
    A1        2.03941  -0.03940   0.00000   0.00000   0.00000   2.03941
         Item               Value     Threshold  Converged?
 Maximum Force            0.039400     0.000450     NO 
 RMS     Force            0.023801     0.000300     NO 
 Maximum Displacement     0.000000     0.001800     YES
 RMS     Displacement     0.000000     0.001200     YES
 Predicted change in Energy= 2.678742D-09
 GradGradGradGradGradGradGradGradGradGradGradGradGradGradGradGradGradGrad

                          Input orientation:                          
 ---------------------------------------------------------------------
 Center     Atomic      Atomic             Coordinates (Angstroms)
 Number     Number       Type             X           Y           Z
 ---------------------------------------------------------------------
      1          8           0        2.576839    3.105958    0.039932
      2         17           0        2.578292    3.923174   -1.417500
      3          1           0        2.645008    3.644792    0.845000
 ---------------------------------------------------------------------
                    Distance matrix (angstroms):
                    1          2          3
     1  O    0.000000
     2  Cl   1.670913   0.000000
     3  H    0.971146   2.280538   0.000000
 Stoichiometry    ClHO
 Framework group  CS[SG(ClHO)]
 Deg. of freedom     3
 Full point group                 CS      NOp   2
 Largest Abelian subgroup         CS      NOp   2
 Largest concise Abelian subgroup C1      NOp   1
                         Standard orientation:                         
 ---------------------------------------------------------------------
 Center     Atomic      Atomic             Coordinates (Angstroms)
 Number     Number       Type             X           Y           Z
 ---------------------------------------------------------------------
      1          8           0        0.033325    1.075651   -0.000000
      2         17           0        0.033325   -0.595263    0.000000
      3          1           0       -0.833128    1.514266   -0.000000
 ---------------------------------------------------------------------
 Rotational constants (GHZ):         737.6182283          15.2307841          14.9226522
 Standard basis: SVP (5D, 7F)
 There are    29 symmetry adapted cartesian basis functions of A'  symmetry.
 There are    10 symmetry adapted cartesian basis functions of A"  symmetry.
 There are    27 symmetry adapted basis functions of A'  symmetry.
 There are    10 symmetry adapted basis functions of A"  symmetry.
    37 basis functions,    69 primitive gaussians,    39 cartesian basis functions
    13 alpha electrons       13 beta electrons
       nuclear repulsion energy        51.3749972185 Hartrees.
 NAtoms=    3 NActive=    3 NUniq=    3 SFac= 1.00D+00 NAtFMM=   60 NAOKFM=F Big=F
 Integral buffers will be    131072 words long.
 Raffenetti 2 integral format.
 Two-electron integral symmetry is turned on.
 Nuclear repulsion after empirical dispersion term =       51.3733918325 Hartrees.
 One-electron integrals computed using PRISM.
 NBasis=    37 RedAO= T EigKep=  3.43D-02  NBF=    27    10
 NBsUse=    37 1.00D-06 EigRej= -1.00D+00 NBFU=    27    10
 Initial guess from the checkpoint file:  "/tmp/Gau-22862.chk"
 B after Tr=     0.000000    0.000000   -0.000000
         Rot=    1.000000   -0.000000    0.000000    0.000000 Ang=   0.00 deg.
 Initial guess orbital symmetries:
       Occupied  (A') (A') (A') (A') (A') (A") (A') (A') (A') (A')
                 (A") (A') (A")
       Virtual   (A') (A') (A') (A') (A') (A") (A') (A') (A") (A')
                 (A") (A') (A") (A') (A') (A') (A") (A') (A') (A")
                 (A') (A") (A') (A')
 Keep R1 ints in memory in symmetry-blocked form, NReq=7153137.
 Requested convergence on RMS density matrix=1.00D-08 within 128 cycles.
 Requested convergence on MAX density matrix=1.00D-06.
 Requested convergence on             energy=1.00D-06.
 No special actions if energy rises.
 SCF Done:  E(RB3LYP) =  -535.754516359     A.U. after    1 cycles
            NFock=  1  Conv=0.11D-08     -V/T= 2.0025
 Calling FoFJK, ICntrl=      2127 FMM=F ISym2X=1 I1Cent= 0 IOpClX= 0 NMat=1 NMatS=1 NMatT=0.
 ***** Axes restored to original set *****
 -------------------------------------------------------------------
 Center     Atomic                   Forces (Hartrees/Bohr)
 Number     Number              X              Y              Z
 -------------------------------------------------------------------
      1        8          -0.001812238   -0.034818370    0.016102947
      2       17           0.000997664    0.016775726   -0.004486757
      3        1           0.000814574    0.018042643   -0.011616191
 -------------------------------------------------------------------
 Cartesian Forces:  Max     0.034818370 RMS     0.015771267

 GradGradGradGradGradGradGradGradGradGradGradGradGradGradGradGradGradGrad
 Berny optimization.
 FormGI is forming the generalized inverse of G from B-inverse, IUseBI=4.
 Internal  Forces:  Max     0.039399959 RMS     0.023800742
 Search for a saddle point.
 Step number 100 out of a maximum of  100
 All quantities printed in internal units (Hartrees-Bohrs-Radians)
 Swapping is turned off.
 Update second derivatives using D2CorX and points  100
 The second derivative matrix:
                          R1        R2        A1
           R1           0.28135
           R2          -0.01106   0.50645
           A1           0.04225   0.00063   0.15661
 ITU=  0  0  0  0
     Eigenvalues ---    0.14361   0.29381   0.50699
 Eigenvectors required to have negative eigenvalues:
                          A1        R1        R2
   1                    0.95575  -0.29399  -0.01063
 RFO step:  Lambda0=1.546044235D-01 Lambda= 0.00000000D+00.
 Linear search not attempted -- option 19 set.
 Iteration  1 RMS(Cart)=  0.00000001 RMS(Int)=  0.00000000
 ClnCor:  largest displacement from symmetrization is 3.88D-15 for atom     3.
 Variable       Old X    -DE/DX   Delta X   Delta X   Delta X     New X
                                 (Linear)    (Quad)   (Total)
    R1        3.15757   0.01212   0.00000  -0.00000  -0.00000   3.15757
    R2        1.83520   0.00044   0.00000   0.00000   0.00000   1.83520
    A1        2.03941  -0.03940   0.00000   0.00000   0.00000   2.03941
         Item               Value     Threshold  Converged?
 Maximum Force            0.039400     0.000450     NO 
 RMS     Force            0.023801     0.000300     NO 
 Maximum Displacement     0.000000     0.001800     YES
 RMS     Displacement     0.000000     0.001200     YES
 Predicted change in Energy= 4.207812D-10
 Optimization stopped.
    -- Number of steps exceeded,  NStep= 100
    -- Flag reset to prevent archiving.
                           ----------------------------
                           ! Non-Optimized Parameters !
                           ! (Angstroms and Degrees)  !
 --------------------------                            --------------------------
 ! Name  Definition              Value          Derivative Info.                !
 --------------------------------------------------------------------------------
 ! R1    R(1,2)                  1.6709         -DE/DX =    0.0121              !
 ! R2    R(1,3)                  0.9711         -DE/DX =    0.0004              !
 ! A1    A(2,1,3)              116.8494         -DE/DX =   -0.0394              !
 --------------------------------------------------------------------------------
 GradGradGradGradGradGradGradGradGradGradGradGradGradGradGradGradGradGrad

                          Input orientation:                          
 ---------------------------------------------------------------------
 Center     Atomic      Atomic             Coordinates (Angstroms)
 Number     Number       Type             X           Y           Z
 ---------------------------------------------------------------------
      1          8           0        2.576839    3.105958    0.039932
      2         17           0        2.578292    3.923174   -1.417500
      3          1           0        2.645008    3.644792    0.845000
 ---------------------------------------------------------------------
                    Distance matrix (angstroms):
                    1          2          3
     1  O    0.000000
     2  Cl   1.670913   0.000000
     3  H    0.971146   2.280538   0.000000
 Stoichiometry    ClHO
 Framework group  CS[SG(ClHO)]
 Deg. of freedom     3
 Full point group                 CS      NOp   2
 Largest Abelian subgroup         CS      NOp   2
 Largest concise Abelian subgroup C1      NOp   1
                         Standard orientation:                         
 ---------------------------------------------------------------------
 Center     Atomic      Atomic             Coordinates (Angstroms)
 Number     Number       Type             X           Y           Z
 ---------------------------------------------------------------------
      1          8           0        0.033325    1.075651   -0.000000
      2         17           0        0.033325   -0.595263    0.000000
      3          1           0       -0.833128    1.514266   -0.000000
 ---------------------------------------------------------------------
 Rotational constants (GHZ):         737.6182283          15.2307841          14.9226522

 **********************************************************************

            Population analysis using the SCF density.

 **********************************************************************

 Orbital symmetries:
       Occupied  (A') (A') (A') (A') (A') (A") (A') (A') (A') (A')
                 (A") (A') (A")
       Virtual   (A') (A') (A') (A') (A') (A") (A') (A') (A") (A')
                 (A") (A') (A") (A') (A') (A') (A") (A') (A') (A")
                 (A') (A") (A') (A')
 The electronic state is 1-A'.
 Alpha  occ. eigenvalues -- -101.53996 -19.18394  -9.49223  -7.26576  -7.24915
 Alpha  occ. eigenvalues --   -7.24875  -1.04865  -0.79212  -0.53482  -0.42149
 Alpha  occ. eigenvalues --   -0.40181  -0.30294  -0.27067
 Alpha virt. eigenvalues --   -0.05587   0.06967   0.44195   0.54205   0.69809
 Alpha virt. eigenvalues --    0.70083   0.73297   0.76216   0.76274   0.84586
 Alpha virt. eigenvalues --    0.85046   0.95399   0.99562   1.07517   1.14625
 Alpha virt. eigenvalues --    1.24314   1.44060   1.65121   2.16397   2.63092
 Alpha virt. eigenvalues --    2.79592   2.91979   3.02469   3.63516
          Condensed to atoms (all electrons):
               1          2          3
     1  O    7.925208   0.103894   0.310751
     2  Cl   0.103894  16.792777  -0.022052
     3  H    0.310751  -0.022052   0.496829
 Mulliken charges:
               1
     1  O   -0.339853
     2  Cl   0.125382
     3  H    0.214471
 Sum of Mulliken charges =   0.00000
 Mulliken charges with hydrogens summed into heavy atoms:
               1
     1  O   -0.125382
     2  Cl   0.125382
 Electronic spatial extent (au):  <R**2>=            103.0139
 Charge=             -0.0000 electrons
 Dipole moment (field-independent basis, Debye):
    X=             -1.6139    Y=              0.3097    Z=              0.0000  Tot=              1.6433
 Quadrupole moment (field-independent basis, Debye-Ang):
   XX=            -16.8156   YY=            -15.3299   ZZ=            -18.5380
   XY=             -2.8498   XZ=             -0.0000   YZ=              0.0000
 Traceless Quadrupole moment (field-independent basis, Debye-Ang):
   XX=              0.0789   YY=              1.5646   ZZ=             -1.6435
   XY=             -2.8498   XZ=             -0.0000   YZ=              0.0000
 Octapole moment (field-independent basis, Debye-Ang**2):
  XXX=             -1.7890  YYY=              2.9971  ZZZ=             -0.0000  XYY=             -4.2147
  XXY=              3.0752  XXZ=             -0.0000  XZZ=             -0.2329  YZZ=              0.6951
  YYZ=              0.0000  XYZ=             -0.0000
 Hexadecapole moment (field-independent basis, Debye-Ang**3):
 XXXX=            -16.9407 YYYY=            -70.8455 ZZZZ=            -16.5481 XXXY=             -0.2645
 XXXZ=             -0.0000 YYYX=             -5.1666 YYYZ=              0.0000 ZZZX=             -0.0000
 ZZZY=              0.0000 XXYY=            -14.0912 XXZZ=             -5.7811 YYZZ=            -17.4826
 XXYZ=              0.0000 YYXZ=             -0.0000 ZZXY=              0.5070
 N-N= 5.137339183253D+01 E-N=-1.375815771124D+03  KE= 5.344259851196D+02
 Symmetry A'   KE= 4.836705602859D+02
 Symmetry A"   KE= 5.075542483369D+01


 THERE IS MORE TO LIFE THAN INCREASING ITS SPEED.

                                       -- GANDHI
 Error termination request processed by link 9999.
 Error termination via Lnk1e in /share/apps/g16.a03/g16/l9999.exe at Thu Mar  6 16:38:36 2025.
 Job cpu time:       0 days  0 hours 12 minutes 52.5 seconds.
 Elapsed time:       0 days  0 hours  1 minutes 40.6 seconds.
 File lengths (MBytes):  RWF=      6 Int=      0 D2E=      0 Chk=      1 Scr=      1
