 Entering Gaussian System, Link 0=g16
 Input=ts.gjf
 Output=ts.log
 Initial command:
 /share/apps/g16.a03/g16/l1.exe "/tmp/Gau-22482.inp" -scrdir="/tmp/"
 Entering Link 1 = /share/apps/g16.a03/g16/l1.exe PID=     22484.
  
 Copyright (c) 1988,1990,1992,1993,1995,1998,2003,2009,2016,
            Gaussian, Inc.  All Rights Reserved.
  
 This is part of the Gaussian(R) 16 program.  It is based on
 the Gaussian(R) 09 system (copyright 2009, Gaussian, Inc.),
 the Gaussian(R) 03 system (copyright 2003, Gaussian, Inc.),
 the Gaussian(R) 98 system (copyright 1998, Gaussian, Inc.),
 the Gaussian(R) 94 system (copyright 1995, Gaussian, Inc.),
 the Gaussian 92(TM) system (copyright 1992, Gaussian, Inc.),
 the Gaussian 90(TM) system (copyright 1990, Gaussian, Inc.),
 the Gaussian 88(TM) system (copyright 1988, Gaussian, Inc.),
 the Gaussian 86(TM) system (copyright 1986, Carnegie Mellon
 University), and the Gaussian 82(TM) system (copyright 1983,
 Carnegie Mellon University). Gaussian is a federally registered
 trademark of Gaussian, Inc.
  
 This software contains proprietary and confidential information,
 including trade secrets, belonging to Gaussian, Inc.
  
 This software is provided under written license and may be
 used, copied, transmitted, or stored only in accord with that
 written license.
  
 The following legend is applicable only to US Government
 contracts under FAR:
  
                    RESTRICTED RIGHTS LEGEND
  
 Use, reproduction and disclosure by the US Government is
 subject to restrictions as set forth in subparagraphs (a)
 and (c) of the Commercial Computer Software - Restricted
 Rights clause in FAR 52.227-19.
  
 Gaussian, Inc.
 340 Quinnipiac St., Bldg. 40, Wallingford CT 06492
  
  
 ---------------------------------------------------------------
 Warning -- This program may not be used in any manner that
 competes with the business of Gaussian, Inc. or will provide
 assistance to any competitor of Gaussian, Inc.  The licensee
 of this program is prohibited from giving any competitor of
 Gaussian, Inc. access to this program.  By using this program,
 the user acknowledges that Gaussian, Inc. is engaged in the
 business of creating and licensing software in the field of
 computational chemistry and represents and warrants to the
 licensee that it is not a competitor of Gaussian, Inc. and that
 it will not use this program in any manner prohibited above.
 ---------------------------------------------------------------
  

 Cite this work as:
 Gaussian 16, Revision A.03,
 M. J. Frisch, G. W. Trucks, H. B. Schlegel, G. E. Scuseria, 
 M. A. Robb, J. R. Cheeseman, G. Scalmani, V. Barone, 
 G. A. Petersson, H. Nakatsuji, X. Li, M. Caricato, A. V. Marenich, 
 J. Bloino, B. G. Janesko, R. Gomperts, B. Mennucci, H. P. Hratchian, 
 J. V. Ortiz, A. F. Izmaylov, J. L. Sonnenberg, D. Williams-Young, 
 F. Ding, F. Lipparini, F. Egidi, J. Goings, B. Peng, A. Petrone, 
 T. Henderson, D. Ranasinghe, V. G. Zakrzewski, J. Gao, N. Rega, 
 G. Zheng, W. Liang, M. Hada, M. Ehara, K. Toyota, R. Fukuda, 
 J. Hasegawa, M. Ishida, T. Nakajima, Y. Honda, O. Kitao, H. Nakai, 
 T. Vreven, K. Throssell, J. A. Montgomery, Jr., J. E. Peralta, 
 F. Ogliaro, M. J. Bearpark, J. J. Heyd, E. N. Brothers, K. N. Kudin, 
 V. N. Staroverov, T. A. Keith, R. Kobayashi, J. Normand, 
 K. Raghavachari, A. P. Rendell, J. C. Burant, S. S. Iyengar, 
 J. Tomasi, M. Cossi, J. M. Millam, M. Klene, C. Adamo, R. Cammi, 
 J. W. Ochterski, R. L. Martin, K. Morokuma, O. Farkas, 
 J. B. Foresman, and D. J. Fox, Gaussian, Inc., Wallingford CT, 2016.
 
 ******************************************
 Gaussian 16:  EM64L-G16RevA.03 25-Dec-2016
                 6-Mar-2025 
 ******************************************
 %nproc=8
 Will use up to    8 processors via shared memory.
 %mem=4000MB
 --------------------------------------------------------------------
 #opt=(noeigen,calcfc,ts,recalc=5,maxcyc=200) freq B3LYP/SVP em=GD3BJ
 --------------------------------------------------------------------
 1/5=1,6=200,10=4,11=1,18=20,26=3,38=1,71=5/1,3;
 2/9=110,12=2,17=6,18=5,40=1/2;
 3/5=18,7=101,11=2,25=1,30=1,71=2,74=-5,124=41,140=1/1,2,3;
 4//1;
 5/5=2,38=5/2;
 8/6=4,10=90,11=11/1;
 11/6=1,8=1,9=11,15=111,16=1/1,2,10;
 10/6=1,13=1/2;
 6/7=2,8=2,9=2,10=2,28=1/1;
 7/10=1,18=20,25=1/1,2,3,16;
 1/5=1,6=200,10=4,11=1,18=20,26=3,71=5/3(2);
 2/9=110/2;
 99//99;
 2/9=110/2;
 3/5=18,7=101,11=2,25=1,30=1,71=1,74=-5,124=41/1,2,3;
 4/5=5,16=3,69=1/1;
 5/5=2,38=5/2;
 7//1,2,3,16;
 1/5=1,6=200,11=1,18=20,26=3,71=5/3(-5);
 2/9=110/2;
 6/7=2,8=2,9=2,10=2,19=2,28=1/1;
 99/9=1/99;
 -----------
 ts-1594.gjf
 -----------
 Symbolic Z-matrix:
 Charge =  0 Multiplicity = 1
 Cl                   -3.45807   3.67106  -1.2483 
 O                    -1.90053   4.22363  -1.7247 
 H                    -1.53963   5.00841  -1.21237 
 

 GradGradGradGradGradGradGradGradGradGradGradGradGradGradGradGradGradGrad
 Berny optimization.
 Initialization pass.
                           ----------------------------
                           !    Initial Parameters    !
                           ! (Angstroms and Degrees)  !
 --------------------------                            --------------------------
 ! Name  Definition              Value          Derivative Info.                !
 --------------------------------------------------------------------------------
 ! R1    R(1,2)                  1.7199         calculate D2E/DX2 analytically  !
 ! R2    R(2,3)                  1.0043         calculate D2E/DX2 analytically  !
 ! A1    A(1,2,3)              115.7961         calculate D2E/DX2 analytically  !
 --------------------------------------------------------------------------------
 Trust Radius=3.00D-01 FncErr=1.00D-07 GrdErr=1.00D-06 EigMax=2.50D+02 EigMin=1.00D-04
 Number of steps in this run=    100 maximum allowed number of steps=    100.
 Search for a saddle point of order  1.
 GradGradGradGradGradGradGradGradGradGradGradGradGradGradGradGradGradGrad

                          Input orientation:                          
 ---------------------------------------------------------------------
 Center     Atomic      Atomic             Coordinates (Angstroms)
 Number     Number       Type             X           Y           Z
 ---------------------------------------------------------------------
      1         17           0       -3.458066    3.671060   -1.248304
      2          8           0       -1.900525    4.223626   -1.724695
      3          1           0       -1.539631    5.008413   -1.212367
 ---------------------------------------------------------------------
                    Distance matrix (angstroms):
                    1          2          3
     1  Cl   0.000000
     2  O    1.719945   0.000000
     3  H    2.338845   1.004299   0.000000
 Stoichiometry    ClHO
 Framework group  CS[SG(ClHO)]
 Deg. of freedom     3
 Full point group                 CS      NOp   2
 Largest Abelian subgroup         CS      NOp   2
 Largest concise Abelian subgroup C1      NOp   1
                         Standard orientation:                         
 ---------------------------------------------------------------------
 Center     Atomic      Atomic             Coordinates (Angstroms)
 Number     Number       Type             X           Y           Z
 ---------------------------------------------------------------------
      1         17           0        0.034778   -0.612175   -0.000000
      2          8           0        0.034778    1.107770   -0.000000
      3          1           0       -0.869441    1.544810    0.000000
 ---------------------------------------------------------------------
 Rotational constants (GHZ):         676.4097063          14.3934773          14.0935768
 Standard basis: SVP (5D, 7F)
 There are    29 symmetry adapted cartesian basis functions of A'  symmetry.
 There are    10 symmetry adapted cartesian basis functions of A"  symmetry.
 There are    27 symmetry adapted basis functions of A'  symmetry.
 There are    10 symmetry adapted basis functions of A"  symmetry.
    37 basis functions,    69 primitive gaussians,    39 cartesian basis functions
    13 alpha electrons       13 beta electrons
       nuclear repulsion energy        49.9049036707 Hartrees.
 NAtoms=    3 NActive=    3 NUniq=    3 SFac= 1.00D+00 NAtFMM=   60 NAOKFM=F Big=F
 Integral buffers will be    131072 words long.
 Raffenetti 2 integral format.
 Two-electron integral symmetry is turned on.
 Nuclear repulsion after empirical dispersion term =       49.9033049472 Hartrees.
 One-electron integrals computed using PRISM.
 NBasis=    37 RedAO= T EigKep=  3.77D-02  NBF=    27    10
 NBsUse=    37 1.00D-06 EigRej= -1.00D+00 NBFU=    27    10
 ExpMin= 1.22D-01 ExpMax= 1.04D+04 ExpMxC= 1.57D+03 IAcc=3 IRadAn=         5 AccDes= 0.00D+00
 Harris functional with IExCor=  402 and IRadAn=       5 diagonalized for initial guess.
 HarFok:  IExCor=  402 AccDes= 0.00D+00 IRadAn=         5 IDoV= 1 UseB2=F ITyADJ=14
 ICtDFT=  3500011 ScaDFX=  1.000000  1.000000  1.000000  1.000000
 FoFCou: FMM=F IPFlag=           0 FMFlag=      100000 FMFlg1=           0
         NFxFlg=           0 DoJE=T BraDBF=F KetDBF=T FulRan=T
         wScrn=  0.000000 ICntrl=       500 IOpCl=  0 I1Cent=   200000004 NGrid=           0
         NMat0=    1 NMatS0=      1 NMatT0=    0 NMatD0=    1 NMtDS0=    0 NMtDT0=    0
 Petite list used in FoFCou.
 Initial guess orbital symmetries:
       Occupied  (A') (A') (A') (A') (A') (A") (A') (A') (A') (A')
                 (A") (A') (A")
       Virtual   (A') (A') (A') (A') (A') (A") (A') (A') (A") (A')
                 (A") (A') (A") (A') (A') (A') (A") (A') (A') (A")
                 (A') (A") (A') (A')
 The electronic state of the initial guess is 1-A'.
 Keep R1 ints in memory in symmetry-blocked form, NReq=7153137.
 Requested convergence on RMS density matrix=1.00D-08 within 128 cycles.
 Requested convergence on MAX density matrix=1.00D-06.
 Requested convergence on             energy=1.00D-06.
 No special actions if energy rises.
 Integral accuracy reduced to 1.0D-05 until final iterations.
 Initial convergence to 1.0D-05 achieved.  Increase integral accuracy.
 SCF Done:  E(RB3LYP) =  -535.754470951     A.U. after   12 cycles
            NFock= 12  Conv=0.39D-08     -V/T= 2.0027
 DoSCS=F DFT=T ScalE2(SS,OS)=  1.000000  1.000000
 Range of M.O.s used for correlation:     1    37
 NBasis=    37 NAE=    13 NBE=    13 NFC=     0 NFV=     0
 NROrb=     37 NOA=    13 NOB=    13 NVA=    24 NVB=    24
 Symmetrizing basis deriv contribution to polar:
 IMax=3 JMax=2 DiffMx= 0.00D+00
 G2DrvN: will do     4 centers at a time, making    1 passes.
 Calling FoFCou, ICntrl=  3107 FMM=F I1Cent=   0 AccDes= 0.00D+00.
 End of G2Drv F.D. properties file   721 does not exist.
 End of G2Drv F.D. properties file   722 does not exist.
 End of G2Drv F.D. properties file   788 does not exist.
          IDoAtm=111
          Differentiating once with respect to nuclear coordinates.
 Keep R1 ints in memory in symmetry-blocked form, NReq=7127949.
          There are    12 degrees of freedom in the 1st order CPHF.  IDoFFX=6 NUNeed=     0.
      6 vectors produced by pass  0 Test12= 2.60D-15 8.33D-09 XBig12= 6.16D-02 1.71D-01.
 AX will form     6 AO Fock derivatives at one time.
      6 vectors produced by pass  1 Test12= 2.60D-15 8.33D-09 XBig12= 2.69D-02 7.97D-02.
      6 vectors produced by pass  2 Test12= 2.60D-15 8.33D-09 XBig12= 6.00D-04 9.63D-03.
      6 vectors produced by pass  3 Test12= 2.60D-15 8.33D-09 XBig12= 1.01D-05 9.35D-04.
      6 vectors produced by pass  4 Test12= 2.60D-15 8.33D-09 XBig12= 3.94D-08 6.70D-05.
      6 vectors produced by pass  5 Test12= 2.60D-15 8.33D-09 XBig12= 1.08D-10 3.01D-06.
      4 vectors produced by pass  6 Test12= 2.60D-15 8.33D-09 XBig12= 1.46D-13 1.35D-07.
 InvSVY:  IOpt=1 It=  1 EMax= 2.22D-16
 Solved reduced A of dimension    40 with     6 vectors.
 End of Minotr F.D. properties file   721 does not exist.
 End of Minotr F.D. properties file   722 does not exist.
 End of Minotr F.D. properties file   788 does not exist.

 **********************************************************************

            Population analysis using the SCF density.

 **********************************************************************

 Orbital symmetries:
       Occupied  (A') (A') (A') (A') (A') (A") (A') (A') (A') (A')
                 (A") (A') (A")
       Virtual   (A') (A') (A') (A') (A') (A") (A') (A') (A") (A')
                 (A") (A') (A") (A') (A') (A') (A") (A') (A') (A")
                 (A') (A") (A') (A')
 The electronic state is 1-A'.
 Alpha  occ. eigenvalues -- -101.54086 -19.18999  -9.49248  -7.26602  -7.24950
 Alpha  occ. eigenvalues --   -7.24913  -1.02997  -0.79120  -0.52364  -0.41593
 Alpha  occ. eigenvalues --   -0.39348  -0.30713  -0.27538
 Alpha virt. eigenvalues --   -0.07399   0.05833   0.44298   0.52789   0.69242
 Alpha virt. eigenvalues --    0.69964   0.72374   0.76317   0.76368   0.84440
 Alpha virt. eigenvalues --    0.84929   0.94755   0.99372   1.06223   1.13920
 Alpha virt. eigenvalues --    1.24178   1.43289   1.64130   2.09395   2.62359
 Alpha virt. eigenvalues --    2.77580   2.89009   2.97117   3.60062
          Condensed to atoms (all electrons):
               1          2          3
     1  Cl  16.789066   0.114306  -0.019200
     2  O    0.114306   7.934132   0.295101
     3  H   -0.019200   0.295101   0.496388
 Mulliken charges:
               1
     1  Cl   0.115828
     2  O   -0.343539
     3  H    0.227711
 Sum of Mulliken charges =  -0.00000
 Mulliken charges with hydrogens summed into heavy atoms:
               1
     1  Cl   0.115828
     2  O   -0.115828
 APT charges:
               1
     1  Cl   0.130044
     2  O   -0.653786
     3  H    0.523742
 Sum of APT charges =  -0.00000
 APT charges with hydrogens summed into heavy atoms:
               1
     1  Cl   0.130044
     2  O   -0.130044
 Electronic spatial extent (au):  <R**2>=            106.7765
 Charge=             -0.0000 electrons
 Dipole moment (field-independent basis, Debye):
    X=             -1.6404    Y=              0.3034    Z=              0.0000  Tot=              1.6682
 Quadrupole moment (field-independent basis, Debye-Ang):
   XX=            -16.7726   YY=            -15.2349   ZZ=            -18.6169
   XY=             -2.9397   XZ=              0.0000   YZ=             -0.0000
 Traceless Quadrupole moment (field-independent basis, Debye-Ang):
   XX=              0.1022   YY=              1.6399   ZZ=             -1.7421
   XY=             -2.9397   XZ=              0.0000   YZ=             -0.0000
 Octapole moment (field-independent basis, Debye-Ang**2):
  XXX=             -1.8878  YYY=              3.1153  ZZZ=              0.0000  XYY=             -4.4176
  XXY=              3.2429  XXZ=              0.0000  XZZ=             -0.2157  YZZ=              0.6133
  YYZ=              0.0000  XYZ=             -0.0000
 Hexadecapole moment (field-independent basis, Debye-Ang**3):
 XXXX=            -17.0907 YYYY=            -74.2655 ZZZZ=            -16.6392 XXXY=             -0.3008
 XXXZ=              0.0000 YYYX=             -5.4443 YYYZ=             -0.0000 ZZZX=              0.0000
 ZZZY=             -0.0000 XXYY=            -14.4578 XXZZ=             -5.8562 YYZZ=            -18.2522
 XXYZ=             -0.0000 YYXZ=              0.0000 ZZXY=              0.5881
 N-N= 4.990330494715D+01 E-N=-1.372830684294D+03  KE= 5.343073005251D+02
 Symmetry A'   KE= 4.835568643162D+02
 Symmetry A"   KE= 5.075043620888D+01
  Exact polarizability:   0.000   0.000   0.000   0.000   0.000   0.000
 Approx polarizability:  14.280  -2.465  36.370  -0.000   0.000  10.142
 Calling FoFJK, ICntrl=    100147 FMM=F ISym2X=1 I1Cent= 0 IOpClX= 0 NMat=1 NMatS=1 NMatT=0.
 ***** Axes restored to original set *****
 -------------------------------------------------------------------
 Center     Atomic                   Forces (Hartrees/Bohr)
 Number     Number              X              Y              Z
 -------------------------------------------------------------------
      1       17           0.007920643    0.011753882    0.006057683
      2        8           0.019293383    0.008822380   -0.004025902
      3        1          -0.027214026   -0.020576262   -0.002031781
 -------------------------------------------------------------------
 Cartesian Forces:  Max     0.027214026 RMS     0.014422115
 FormGI is forming the generalized inverse of G from B-inverse, IUseBI=4.

 GradGradGradGradGradGradGradGradGradGradGradGradGradGradGradGradGradGrad
 Berny optimization.
 Internal  Forces:  Max     0.040024955 RMS     0.028350682
 Search for a saddle point.
 Step number   1 out of a maximum of  100
 All quantities printed in internal units (Hartrees-Bohrs-Radians)
 Swapping is turned off.
 Second derivative matrix not updated -- analytic derivatives used.
 The second derivative matrix:
                          R1        R2        A1
           R1           0.21322
           R2          -0.00977   0.40097
           A1           0.03381  -0.00121   0.15478
 ITU=  0
     Eigenvalues ---    0.13927   0.22818   0.40151
 Eigenvectors required to have negative eigenvalues:
                          A1        R1        R2
   1                    0.90879  -0.41711  -0.01137
 RFO step:  Lambda0=1.463597005D-01 Lambda=-4.67661584D-03.
 Linear search not attempted -- option 19 set.
 Iteration  1 RMS(Cart)=  0.07747884 RMS(Int)=  0.00234825
 Iteration  2 RMS(Cart)=  0.00272282 RMS(Int)=  0.00000341
 Iteration  3 RMS(Cart)=  0.00000256 RMS(Int)=  0.00000000
 Iteration  4 RMS(Cart)=  0.00000000 RMS(Int)=  0.00000000
 ClnCor:  largest displacement from symmetrization is 2.04D-15 for atom     2.
 Variable       Old X    -DE/DX   Delta X   Delta X   Delta X     New X
                                 (Linear)    (Quad)   (Total)
    R1        3.25022  -0.00927   0.00000  -0.15455  -0.15455   3.09568
    R2        1.89785  -0.02689   0.00000  -0.07124  -0.07124   1.82661
    A1        2.02102  -0.04002   0.00000   0.07193   0.07193   2.09295
         Item               Value     Threshold  Converged?
 Maximum Force            0.040025     0.000450     NO 
 RMS     Force            0.028351     0.000300     NO 
 Maximum Displacement     0.077632     0.001800     NO 
 RMS     Displacement     0.078028     0.001200     NO 
 Predicted change in Energy= 3.017001D-03
 GradGradGradGradGradGradGradGradGradGradGradGradGradGradGradGradGradGrad

                          Input orientation:                          
 ---------------------------------------------------------------------
 Center     Atomic      Atomic             Coordinates (Angstroms)
 Number     Number       Type             X           Y           Z
 ---------------------------------------------------------------------
      1         17           0       -3.416985    3.683806   -1.262603
      2          8           0       -1.935039    4.233023   -1.693619
      3          1           0       -1.546198    4.986271   -1.229144
 ---------------------------------------------------------------------
                    Distance matrix (angstroms):
                    1          2          3
     1  Cl   0.000000
     2  O    1.638163   0.000000
     3  H    2.279776   0.966601   0.000000
 Stoichiometry    ClHO
 Framework group  CS[SG(ClHO)]
 Deg. of freedom     3
 Full point group                 CS      NOp   2
 Largest Abelian subgroup         CS      NOp   2
 Largest concise Abelian subgroup C1      NOp   1
                         Standard orientation:                         
 ---------------------------------------------------------------------
 Center     Atomic      Atomic             Coordinates (Angstroms)
 Number     Number       Type             X           Y           Z
 ---------------------------------------------------------------------
      1         17           0        0.032223   -0.585598   -0.000000
      2          8           0        0.032223    1.052564    0.000000
      3          1           0       -0.805575    1.534655    0.000000
 ---------------------------------------------------------------------
 Rotational constants (GHZ):         793.0053648          15.7646001          15.4573154
 Standard basis: SVP (5D, 7F)
 There are    29 symmetry adapted cartesian basis functions of A'  symmetry.
 There are    10 symmetry adapted cartesian basis functions of A"  symmetry.
 There are    27 symmetry adapted basis functions of A'  symmetry.
 There are    10 symmetry adapted basis functions of A"  symmetry.
    37 basis functions,    69 primitive gaussians,    39 cartesian basis functions
    13 alpha electrons       13 beta electrons
       nuclear repulsion energy        52.2579112637 Hartrees.
 NAtoms=    3 NActive=    3 NUniq=    3 SFac= 1.00D+00 NAtFMM=   60 NAOKFM=F Big=F
 Integral buffers will be    131072 words long.
 Raffenetti 2 integral format.
 Two-electron integral symmetry is turned on.
 Nuclear repulsion after empirical dispersion term =       52.2563052057 Hartrees.
 One-electron integrals computed using PRISM.
 NBasis=    37 RedAO= T EigKep=  3.26D-02  NBF=    27    10
 NBsUse=    37 1.00D-06 EigRej= -1.00D+00 NBFU=    27    10
 Initial guess from the checkpoint file:  "/tmp/Gau-22484.chk"
 B after Tr=    -0.000000   -0.000000    0.000000
         Rot=    0.999997    0.000000   -0.000000    0.002522 Ang=   0.29 deg.
 Initial guess orbital symmetries:
       Occupied  (A') (A') (A') (A') (A') (A") (A') (A') (A') (A')
                 (A") (A') (A")
       Virtual   (A') (A') (A') (A') (A') (A") (A') (A') (A") (A')
                 (A") (A') (A") (A') (A') (A') (A") (A') (A') (A")
                 (A') (A") (A') (A')
 ExpMin= 1.22D-01 ExpMax= 1.04D+04 ExpMxC= 1.57D+03 IAcc=2 IRadAn=         4 AccDes= 0.00D+00
 Harris functional with IExCor=  402 and IRadAn=       4 diagonalized for initial guess.
 HarFok:  IExCor=  402 AccDes= 0.00D+00 IRadAn=         4 IDoV= 1 UseB2=F ITyADJ=14
 ICtDFT=  3500011 ScaDFX=  1.000000  1.000000  1.000000  1.000000
 FoFCou: FMM=F IPFlag=           0 FMFlag=      100000 FMFlg1=           0
         NFxFlg=           0 DoJE=T BraDBF=F KetDBF=T FulRan=T
         wScrn=  0.000000 ICntrl=       500 IOpCl=  0 I1Cent=   200000004 NGrid=           0
         NMat0=    1 NMatS0=      1 NMatT0=    0 NMatD0=    1 NMtDS0=    0 NMtDT0=    0
 Petite list used in FoFCou.
 Keep R1 ints in memory in symmetry-blocked form, NReq=7153137.
 Requested convergence on RMS density matrix=1.00D-08 within 128 cycles.
 Requested convergence on MAX density matrix=1.00D-06.
 Requested convergence on             energy=1.00D-06.
 No special actions if energy rises.
 Integral accuracy reduced to 1.0D-05 until final iterations.
 Initial convergence to 1.0D-05 achieved.  Increase integral accuracy.
 SCF Done:  E(RB3LYP) =  -535.750992680     A.U. after   11 cycles
            NFock= 11  Conv=0.39D-08     -V/T= 2.0024
 Calling FoFJK, ICntrl=      2127 FMM=F ISym2X=1 I1Cent= 0 IOpClX= 0 NMat=1 NMatS=1 NMatT=0.
 ***** Axes restored to original set *****
 -------------------------------------------------------------------
 Center     Atomic                   Forces (Hartrees/Bohr)
 Number     Number              X              Y              Z
 -------------------------------------------------------------------
      1       17          -0.026716422    0.000640054    0.017765243
      2        8           0.045044859   -0.005310710   -0.033965064
      3        1          -0.018328437    0.004670655    0.016199822
 -------------------------------------------------------------------
 Cartesian Forces:  Max     0.045044859 RMS     0.023239885

 GradGradGradGradGradGradGradGradGradGradGradGradGradGradGradGradGradGrad
 Berny optimization.
 FormGI is forming the generalized inverse of G from B-inverse, IUseBI=4.
 Internal  Forces:  Max     0.044882684 RMS     0.030824499
 Search for a saddle point.
 Step number   2 out of a maximum of  100
 All quantities printed in internal units (Hartrees-Bohrs-Radians)
 Swapping is turned off.
 Update second derivatives using D2CorX and points    1    2
 The second derivative matrix:
                          R1        R2        A1
           R1           0.25816
           R2           0.01138   0.41092
           A1           0.03905   0.00121   0.15263
 ITU=  0  0
     Eigenvalues ---    0.13973   0.27015   0.41183
 Eigenvectors required to have negative eigenvalues:
                          A1        R1        R2
   1                    0.94941  -0.31390   0.00895
 RFO step:  Lambda0=1.566986752D-01 Lambda=-6.69238506D-04.
 Linear search not attempted -- option 19 set.
 Iteration  1 RMS(Cart)=  0.04895664 RMS(Int)=  0.00101131
 Iteration  2 RMS(Cart)=  0.00076051 RMS(Int)=  0.00000019
 Iteration  3 RMS(Cart)=  0.00000023 RMS(Int)=  0.00000000
 ClnCor:  largest displacement from symmetrization is 2.88D-15 for atom     3.
 Variable       Old X    -DE/DX   Delta X   Delta X   Delta X     New X
                                 (Linear)    (Quad)   (Total)
    R1        3.09568   0.02863   0.00000   0.03009   0.03009   3.12577
    R2        1.82661   0.00405   0.00000   0.01010   0.01010   1.83671
    A1        2.09295  -0.04488   0.00000   0.06121   0.06121   2.15416
         Item               Value     Threshold  Converged?
 Maximum Force            0.044883     0.000450     NO 
 RMS     Force            0.030824     0.000300     NO 
 Maximum Displacement     0.051854     0.001800     NO 
 RMS     Displacement     0.048819     0.001200     NO 
 Predicted change in Energy= 2.344571D-03
 GradGradGradGradGradGradGradGradGradGradGradGradGradGradGradGradGradGrad

                          Input orientation:                          
 ---------------------------------------------------------------------
 Center     Atomic      Atomic             Coordinates (Angstroms)
 Number     Number       Type             X           Y           Z
 ---------------------------------------------------------------------
      1         17           0       -3.436877    3.665068   -1.267594
      2          8           0       -1.942587    4.241903   -1.680352
      3          1           0       -1.518758    4.996129   -1.237420
 ---------------------------------------------------------------------
                    Distance matrix (angstroms):
                    1          2          3
     1  Cl   0.000000
     2  O    1.654088   0.000000
     3  H    2.334912   0.971945   0.000000
 Stoichiometry    ClHO
 Framework group  CS[SG(ClHO)]
 Deg. of freedom     3
 Full point group                 CS      NOp   2
 Largest Abelian subgroup         CS      NOp   2
 Largest concise Abelian subgroup C1      NOp   1
                         Standard orientation:                         
 ---------------------------------------------------------------------
 Center     Atomic      Atomic             Coordinates (Angstroms)
 Number     Number       Type             X           Y           Z
 ---------------------------------------------------------------------
      1         17           0        0.031200   -0.593160   -0.000000
      2          8           0        0.031200    1.060928    0.000000
      3          1           0       -0.780001    1.596307    0.000000
 ---------------------------------------------------------------------
 Rotational constants (GHZ):         849.9052660          15.3888864          15.1152016
 Standard basis: SVP (5D, 7F)
 There are    29 symmetry adapted cartesian basis functions of A'  symmetry.
 There are    10 symmetry adapted cartesian basis functions of A"  symmetry.
 There are    27 symmetry adapted basis functions of A'  symmetry.
 There are    10 symmetry adapted basis functions of A"  symmetry.
    37 basis functions,    69 primitive gaussians,    39 cartesian basis functions
    13 alpha electrons       13 beta electrons
       nuclear repulsion energy        51.7176702871 Hartrees.
 NAtoms=    3 NActive=    3 NUniq=    3 SFac= 1.00D+00 NAtFMM=   60 NAOKFM=F Big=F
 Integral buffers will be    131072 words long.
 Raffenetti 2 integral format.
 Two-electron integral symmetry is turned on.
 Nuclear repulsion after empirical dispersion term =       51.7160702440 Hartrees.
 One-electron integrals computed using PRISM.
 NBasis=    37 RedAO= T EigKep=  3.43D-02  NBF=    27    10
 NBsUse=    37 1.00D-06 EigRej= -1.00D+00 NBFU=    27    10
 Initial guess from the checkpoint file:  "/tmp/Gau-22484.chk"
 B after Tr=    -0.000000    0.000000   -0.000000
         Rot=    0.999997   -0.000000    0.000000    0.002577 Ang=   0.30 deg.
 Initial guess orbital symmetries:
       Occupied  (A') (A') (A') (A') (A') (A") (A') (A') (A') (A')
                 (A") (A') (A")
       Virtual   (A') (A') (A') (A') (A') (A") (A') (A') (A") (A')
                 (A") (A') (A") (A') (A') (A') (A") (A') (A') (A")
                 (A') (A") (A') (A')
 ExpMin= 1.22D-01 ExpMax= 1.04D+04 ExpMxC= 1.57D+03 IAcc=2 IRadAn=         4 AccDes= 0.00D+00
 Harris functional with IExCor=  402 and IRadAn=       4 diagonalized for initial guess.
 HarFok:  IExCor=  402 AccDes= 0.00D+00 IRadAn=         4 IDoV= 1 UseB2=F ITyADJ=14
 ICtDFT=  3500011 ScaDFX=  1.000000  1.000000  1.000000  1.000000
 FoFCou: FMM=F IPFlag=           0 FMFlag=      100000 FMFlg1=           0
         NFxFlg=           0 DoJE=T BraDBF=F KetDBF=T FulRan=T
         wScrn=  0.000000 ICntrl=       500 IOpCl=  0 I1Cent=   200000004 NGrid=           0
         NMat0=    1 NMatS0=      1 NMatT0=    0 NMatD0=    1 NMtDS0=    0 NMtDT0=    0
 Petite list used in FoFCou.
 Keep R1 ints in memory in symmetry-blocked form, NReq=7153137.
 Requested convergence on RMS density matrix=1.00D-08 within 128 cycles.
 Requested convergence on MAX density matrix=1.00D-06.
 Requested convergence on             energy=1.00D-06.
 No special actions if energy rises.
 Integral accuracy reduced to 1.0D-05 until final iterations.
 Initial convergence to 1.0D-05 achieved.  Increase integral accuracy.
 SCF Done:  E(RB3LYP) =  -535.748630421     A.U. after   11 cycles
            NFock= 11  Conv=0.46D-08     -V/T= 2.0025
 Calling FoFJK, ICntrl=      2127 FMM=F ISym2X=1 I1Cent= 0 IOpClX= 0 NMat=1 NMatS=1 NMatT=0.
 ***** Axes restored to original set *****
 -------------------------------------------------------------------
 Center     Atomic                   Forces (Hartrees/Bohr)
 Number     Number              X              Y              Z
 -------------------------------------------------------------------
      1       17          -0.016401432    0.006436863    0.016636881
      2        8           0.040549017   -0.008480224   -0.034082881
      3        1          -0.024147584    0.002043361    0.017446000
 -------------------------------------------------------------------
 Cartesian Forces:  Max     0.040549017 RMS     0.022001641

 GradGradGradGradGradGradGradGradGradGradGradGradGradGradGradGradGradGrad
 Berny optimization.
 FormGI is forming the generalized inverse of G from B-inverse, IUseBI=4.
 Internal  Forces:  Max     0.054815130 RMS     0.033092622
 Search for a saddle point.
 Step number   3 out of a maximum of  100
 All quantities printed in internal units (Hartrees-Bohrs-Radians)
 Swapping is turned off.
 Update second derivatives using D2CorX and points    1    2    3
 The second derivative matrix:
                          R1        R2        A1
           R1           0.27326
           R2           0.01620   0.41248
           A1           0.05747   0.00639   0.13297
 ITU=  0  0  0
     Eigenvalues ---    0.11243   0.29129   0.41498
 Eigenvectors required to have negative eigenvalues:
                          A1        R1        R2
   1                    0.94175  -0.33632  -0.00188
 RFO step:  Lambda0=1.364460525D-01 Lambda=-2.67131136D-05.
 Linear search not attempted -- option 19 set.
 Iteration  1 RMS(Cart)=  0.00542479 RMS(Int)=  0.00001184
 Iteration  2 RMS(Cart)=  0.00001245 RMS(Int)=  0.00000000
 Iteration  3 RMS(Cart)=  0.00000000 RMS(Int)=  0.00000000
 ClnCor:  largest displacement from symmetrization is 2.55D-15 for atom     3.
 Variable       Old X    -DE/DX   Delta X   Delta X   Delta X     New X
                                 (Linear)    (Quad)   (Total)
    R1        3.12577   0.01672   0.00000  -0.01161  -0.01161   3.11417
    R2        1.83671  -0.00099   0.00000  -0.00231  -0.00231   1.83440
    A1        2.15416  -0.05482   0.00000   0.00572   0.00572   2.15988
         Item               Value     Threshold  Converged?
 Maximum Force            0.054815     0.000450     NO 
 RMS     Force            0.033093     0.000300     NO 
 Maximum Displacement     0.005432     0.001800     NO 
 RMS     Displacement     0.005427     0.001200     NO 
 Predicted change in Energy= 5.234360D-04
 GradGradGradGradGradGradGradGradGradGradGradGradGradGradGradGradGradGrad

                          Input orientation:                          
 ---------------------------------------------------------------------
 Center     Atomic      Atomic             Coordinates (Angstroms)
 Number     Number       Type             X           Y           Z
 ---------------------------------------------------------------------
      1         17           0       -3.434002    3.665886   -1.268665
      2          8           0       -1.945430    4.242169   -1.678273
      3          1           0       -1.518790    4.995044   -1.238428
 ---------------------------------------------------------------------
                    Distance matrix (angstroms):
                    1          2          3
     1  Cl   0.000000
     2  O    1.647947   0.000000
     3  H    2.331440   0.970725   0.000000
 Stoichiometry    ClHO
 Framework group  CS[SG(ClHO)]
 Deg. of freedom     3
 Full point group                 CS      NOp   2
 Largest Abelian subgroup         CS      NOp   2
 Largest concise Abelian subgroup C1      NOp   1
                         Standard orientation:                         
 ---------------------------------------------------------------------
 Center     Atomic      Atomic             Coordinates (Angstroms)
 Number     Number       Type             X           Y           Z
 ---------------------------------------------------------------------
      1         17           0        0.031043   -0.591187   -0.000000
      2          8           0        0.031043    1.056760    0.000000
      3          1           0       -0.776069    1.596091    0.000000
 ---------------------------------------------------------------------
 Rotational constants (GHZ):         859.0609319          15.4943927          15.2198804
 Standard basis: SVP (5D, 7F)
 There are    29 symmetry adapted cartesian basis functions of A'  symmetry.
 There are    10 symmetry adapted cartesian basis functions of A"  symmetry.
 There are    27 symmetry adapted basis functions of A'  symmetry.
 There are    10 symmetry adapted basis functions of A"  symmetry.
    37 basis functions,    69 primitive gaussians,    39 cartesian basis functions
    13 alpha electrons       13 beta electrons
       nuclear repulsion energy        51.8910245075 Hartrees.
 NAtoms=    3 NActive=    3 NUniq=    3 SFac= 1.00D+00 NAtFMM=   60 NAOKFM=F Big=F
 Integral buffers will be    131072 words long.
 Raffenetti 2 integral format.
 Two-electron integral symmetry is turned on.
 Nuclear repulsion after empirical dispersion term =       51.8894239718 Hartrees.
 One-electron integrals computed using PRISM.
 NBasis=    37 RedAO= T EigKep=  3.39D-02  NBF=    27    10
 NBsUse=    37 1.00D-06 EigRej= -1.00D+00 NBFU=    27    10
 Initial guess from the checkpoint file:  "/tmp/Gau-22484.chk"
 B after Tr=     0.000000   -0.000000    0.000000
         Rot=    1.000000   -0.000000    0.000000    0.000175 Ang=   0.02 deg.
 Initial guess orbital symmetries:
       Occupied  (A') (A') (A') (A') (A') (A") (A') (A') (A') (A')
                 (A") (A') (A")
       Virtual   (A') (A') (A') (A') (A') (A") (A') (A') (A") (A')
                 (A") (A') (A") (A') (A') (A') (A") (A') (A') (A")
                 (A') (A") (A') (A')
 Keep R1 ints in memory in symmetry-blocked form, NReq=7153137.
 Requested convergence on RMS density matrix=1.00D-08 within 128 cycles.
 Requested convergence on MAX density matrix=1.00D-06.
 Requested convergence on             energy=1.00D-06.
 No special actions if energy rises.
 SCF Done:  E(RB3LYP) =  -535.748104378     A.U. after    8 cycles
            NFock=  8  Conv=0.48D-08     -V/T= 2.0024
 Calling FoFJK, ICntrl=      2127 FMM=F ISym2X=1 I1Cent= 0 IOpClX= 0 NMat=1 NMatS=1 NMatT=0.
 ***** Axes restored to original set *****
 -------------------------------------------------------------------
 Center     Atomic                   Forces (Hartrees/Bohr)
 Number     Number              X              Y              Z
 -------------------------------------------------------------------
      1       17          -0.019381959    0.005382581    0.017551460
      2        8           0.043198075   -0.008313604   -0.035626230
      3        1          -0.023816116    0.002931024    0.018074770
 -------------------------------------------------------------------
 Cartesian Forces:  Max     0.043198075 RMS     0.023141112

 GradGradGradGradGradGradGradGradGradGradGradGradGradGradGradGradGradGrad
 Berny optimization.
 FormGI is forming the generalized inverse of G from B-inverse, IUseBI=4.
 Internal  Forces:  Max     0.055109066 RMS     0.033845313
 Search for a saddle point.
 Step number   4 out of a maximum of  100
 All quantities printed in internal units (Hartrees-Bohrs-Radians)
 Swapping is turned off.
 Update second derivatives using D2CorX and points    1    2    3    4
 The second derivative matrix:
                          R1        R2        A1
           R1           0.30018
           R2           0.00901   0.41018
           A1           0.04203   0.01070   0.14101
 ITU=  0  0  0  0
     Eigenvalues ---    0.13035   0.30933   0.41169
 Eigenvectors required to have negative eigenvalues:
                          A1        R1        R2
   1                    0.97066  -0.23865  -0.02942
 RFO step:  Lambda0=1.525989565D-01 Lambda=-1.35040131D-04.
 Linear search not attempted -- option 19 set.
 Iteration  1 RMS(Cart)=  0.01896539 RMS(Int)=  0.00015475
 Iteration  2 RMS(Cart)=  0.00013308 RMS(Int)=  0.00000000
 Iteration  3 RMS(Cart)=  0.00000000 RMS(Int)=  0.00000000
 ClnCor:  largest displacement from symmetrization is 1.83D-15 for atom     3.
 Variable       Old X    -DE/DX   Delta X   Delta X   Delta X     New X
                                 (Linear)    (Quad)   (Total)
    R1        3.11417   0.01999   0.00000   0.01477   0.01477   3.12894
    R2        1.83440  -0.00000   0.00000  -0.00536  -0.00536   1.82905
    A1        2.15988  -0.05511   0.00000   0.02494   0.02494   2.18482
         Item               Value     Threshold  Converged?
 Maximum Force            0.055109     0.000450     NO 
 RMS     Force            0.033845     0.000300     NO 
 Maximum Displacement     0.017789     0.001800     NO 
 RMS     Displacement     0.018911     0.001200     NO 
 Predicted change in Energy= 1.175030D-03
 GradGradGradGradGradGradGradGradGradGradGradGradGradGradGradGradGradGrad

                          Input orientation:                          
 ---------------------------------------------------------------------
 Center     Atomic      Atomic             Coordinates (Angstroms)
 Number     Number       Type             X           Y           Z
 ---------------------------------------------------------------------
      1         17           0       -3.441670    3.658645   -1.270606
      2          8           0       -1.947176    4.247706   -1.671902
      3          1           0       -1.509377    4.996749   -1.242857
 ---------------------------------------------------------------------
                    Distance matrix (angstroms):
                    1          2          3
     1  Cl   0.000000
     2  O    1.655761   0.000000
     3  H    2.350542   0.967890   0.000000
 Stoichiometry    ClHO
 Framework group  CS[SG(ClHO)]
 Deg. of freedom     3
 Full point group                 CS      NOp   2
 Largest Abelian subgroup         CS      NOp   2
 Largest concise Abelian subgroup C1      NOp   1
                         Standard orientation:                         
 ---------------------------------------------------------------------
 Center     Atomic      Atomic             Coordinates (Angstroms)
 Number     Number       Type             X           Y           Z
 ---------------------------------------------------------------------
      1         17           0        0.030427   -0.594596    0.000000
      2          8           0        0.030427    1.061165   -0.000000
      3          1           0       -0.760668    1.618821    0.000000
 ---------------------------------------------------------------------
 Rotational constants (GHZ):         895.5764124          15.3248894          15.0670654
 Standard basis: SVP (5D, 7F)
 There are    29 symmetry adapted cartesian basis functions of A'  symmetry.
 There are    10 symmetry adapted cartesian basis functions of A"  symmetry.
 There are    27 symmetry adapted basis functions of A'  symmetry.
 There are    10 symmetry adapted basis functions of A"  symmetry.
    37 basis functions,    69 primitive gaussians,    39 cartesian basis functions
    13 alpha electrons       13 beta electrons
       nuclear repulsion energy        51.6663347587 Hartrees.
 NAtoms=    3 NActive=    3 NUniq=    3 SFac= 1.00D+00 NAtFMM=   60 NAOKFM=F Big=F
 Integral buffers will be    131072 words long.
 Raffenetti 2 integral format.
 Two-electron integral symmetry is turned on.
 Nuclear repulsion after empirical dispersion term =       51.6647365691 Hartrees.
 One-electron integrals computed using PRISM.
 NBasis=    37 RedAO= T EigKep=  3.46D-02  NBF=    27    10
 NBsUse=    37 1.00D-06 EigRej= -1.00D+00 NBFU=    27    10
 Initial guess from the checkpoint file:  "/tmp/Gau-22484.chk"
 B after Tr=    -0.000000    0.000000   -0.000000
         Rot=    0.999999    0.000000   -0.000000    0.001210 Ang=   0.14 deg.
 Initial guess orbital symmetries:
       Occupied  (A') (A') (A') (A') (A') (A") (A') (A') (A') (A')
                 (A") (A') (A")
       Virtual   (A') (A') (A') (A') (A') (A") (A') (A') (A") (A')
                 (A") (A') (A") (A') (A') (A') (A") (A') (A') (A")
                 (A') (A") (A') (A')
 Keep R1 ints in memory in symmetry-blocked form, NReq=7153137.
 Requested convergence on RMS density matrix=1.00D-08 within 128 cycles.
 Requested convergence on MAX density matrix=1.00D-06.
 Requested convergence on             energy=1.00D-06.
 No special actions if energy rises.
 SCF Done:  E(RB3LYP) =  -535.746929593     A.U. after    9 cycles
            NFock=  9  Conv=0.17D-08     -V/T= 2.0025
 Calling FoFJK, ICntrl=      2127 FMM=F ISym2X=1 I1Cent= 0 IOpClX= 0 NMat=1 NMatS=1 NMatT=0.
 ***** Axes restored to original set *****
 -------------------------------------------------------------------
 Center     Atomic                   Forces (Hartrees/Bohr)
 Number     Number              X              Y              Z
 -------------------------------------------------------------------
      1       17          -0.014663652    0.007933346    0.016939724
      2        8           0.038690061   -0.013635145   -0.037776710
      3        1          -0.024026409    0.005701799    0.020836985
 -------------------------------------------------------------------
 Cartesian Forces:  Max     0.038690061 RMS     0.022897820

 GradGradGradGradGradGradGradGradGradGradGradGradGradGradGradGradGradGrad
 Berny optimization.
 FormGI is forming the generalized inverse of G from B-inverse, IUseBI=4.
 Internal  Forces:  Max     0.058878740 RMS     0.035048679
 Search for a saddle point.
 Step number   5 out of a maximum of  100
 All quantities printed in internal units (Hartrees-Bohrs-Radians)
 Swapping is turned off.
 Update second derivatives using D2CorX and points    2    3    4    5
 The second derivative matrix:
                          R1        R2        A1
           R1           0.30143
           R2           0.00221   0.41704
           A1           0.04129  -0.02343   0.12167
 ITU=  0  0  0  0
     Eigenvalues ---    0.11085   0.31039   0.41890
 Eigenvectors required to have negative eigenvalues:
                          A1        R1        R2
   1                    0.97430  -0.21200   0.07610
 RFO step:  Lambda0=1.372792756D-01 Lambda=-1.39735062D-04.
 Linear search not attempted -- option 19 set.
 Iteration  1 RMS(Cart)=  0.01655048 RMS(Int)=  0.00013054
 Iteration  2 RMS(Cart)=  0.00010637 RMS(Int)=  0.00000001
 Iteration  3 RMS(Cart)=  0.00000001 RMS(Int)=  0.00000000
 ClnCor:  largest displacement from symmetrization is 8.88D-16 for atom     3.
 Variable       Old X    -DE/DX   Delta X   Delta X   Delta X     New X
                                 (Linear)    (Quad)   (Total)
    R1        3.12894   0.01452   0.00000   0.00177   0.00177   3.13070
    R2        1.82905   0.00278   0.00000   0.01903   0.01903   1.84807
    A1        2.18482  -0.05888   0.00000   0.01790   0.01790   2.20272
         Item               Value     Threshold  Converged?
 Maximum Force            0.058879     0.000450     NO 
 RMS     Force            0.035049     0.000300     NO 
 Maximum Displacement     0.019214     0.001800     NO 
 RMS     Displacement     0.016585     0.001200     NO 
 Predicted change in Energy= 1.064229D-03
 GradGradGradGradGradGradGradGradGradGradGradGradGradGradGradGradGradGrad

                          Input orientation:                          
 ---------------------------------------------------------------------
 Center     Atomic      Atomic             Coordinates (Angstroms)
 Number     Number       Type             X           Y           Z
 ---------------------------------------------------------------------
      1         17           0       -3.446888    3.653201   -1.272416
      2          8           0       -1.952125    4.247313   -1.669097
      3          1           0       -1.499209    5.002586   -1.243853
 ---------------------------------------------------------------------
                    Distance matrix (angstroms):
                    1          2          3
     1  Cl   0.000000
     2  O    1.656696   0.000000
     3  H    2.369622   0.977958   0.000000
 Stoichiometry    ClHO
 Framework group  CS[SG(ClHO)]
 Deg. of freedom     3
 Full point group                 CS      NOp   2
 Largest Abelian subgroup         CS      NOp   2
 Largest concise Abelian subgroup C1      NOp   1
                         Standard orientation:                         
 ---------------------------------------------------------------------
 Center     Atomic      Atomic             Coordinates (Angstroms)
 Number     Number       Type             X           Y           Z
 ---------------------------------------------------------------------
      1         17           0        0.030350   -0.595690   -0.000000
      2          8           0        0.030350    1.061006    0.000000
      3          1           0       -0.758759    1.638681    0.000000
 ---------------------------------------------------------------------
 Rotational constants (GHZ):         901.9190667          15.2765092          15.0220686
 Standard basis: SVP (5D, 7F)
 There are    29 symmetry adapted cartesian basis functions of A'  symmetry.
 There are    10 symmetry adapted cartesian basis functions of A"  symmetry.
 There are    27 symmetry adapted basis functions of A'  symmetry.
 There are    10 symmetry adapted basis functions of A"  symmetry.
    37 basis functions,    69 primitive gaussians,    39 cartesian basis functions
    13 alpha electrons       13 beta electrons
       nuclear repulsion energy        51.5659651700 Hartrees.
 NAtoms=    3 NActive=    3 NUniq=    3 SFac= 1.00D+00 NAtFMM=   60 NAOKFM=F Big=F
 Integral buffers will be    131072 words long.
 Raffenetti 2 integral format.
 Two-electron integral symmetry is turned on.
 Nuclear repulsion after empirical dispersion term =       51.5643691464 Hartrees.
 One-electron integrals computed using PRISM.
 NBasis=    37 RedAO= T EigKep=  3.49D-02  NBF=    27    10
 NBsUse=    37 1.00D-06 EigRej= -1.00D+00 NBFU=    27    10
 Initial guess from the checkpoint file:  "/tmp/Gau-22484.chk"
 B after Tr=     0.000000   -0.000000    0.000000
         Rot=    1.000000    0.000000   -0.000000    0.000518 Ang=   0.06 deg.
 Initial guess orbital symmetries:
       Occupied  (A') (A') (A') (A') (A') (A") (A') (A') (A') (A')
                 (A") (A') (A")
       Virtual   (A') (A') (A') (A') (A') (A") (A') (A') (A") (A')
                 (A") (A') (A") (A') (A') (A') (A") (A') (A') (A")
                 (A') (A") (A') (A')
 Keep R1 ints in memory in symmetry-blocked form, NReq=7153137.
 Requested convergence on RMS density matrix=1.00D-08 within 128 cycles.
 Requested convergence on MAX density matrix=1.00D-06.
 Requested convergence on             energy=1.00D-06.
 No special actions if energy rises.
 SCF Done:  E(RB3LYP) =  -535.745839672     A.U. after    9 cycles
            NFock=  9  Conv=0.28D-08     -V/T= 2.0025
 Calling FoFJK, ICntrl=      2127 FMM=F ISym2X=1 I1Cent= 0 IOpClX= 0 NMat=1 NMatS=1 NMatT=0.
 ***** Axes restored to original set *****
 -------------------------------------------------------------------
 Center     Atomic                   Forces (Hartrees/Bohr)
 Number     Number              X              Y              Z
 -------------------------------------------------------------------
      1       17          -0.013951779    0.008726597    0.017234665
      2        8           0.042932280   -0.007499082   -0.034683222
      3        1          -0.028980501   -0.001227515    0.017448558
 -------------------------------------------------------------------
 Cartesian Forces:  Max     0.042932280 RMS     0.023132494

 GradGradGradGradGradGradGradGradGradGradGradGradGradGradGradGradGradGrad
 Berny optimization.
 FormGI is forming the generalized inverse of G from B-inverse, IUseBI=4.
 Internal  Forces:  Max     0.061289606 RMS     0.036455322
 Search for a saddle point.
 Step number   6 out of a maximum of  100
 All quantities printed in internal units (Hartrees-Bohrs-Radians)
 Swapping is turned off.
 Second derivative matrix not updated -- analytic derivatives used.
 The second derivative matrix:
                          R1        R2        A1
           R1           0.30143
           R2           0.00221   0.41704
           A1           0.04129  -0.02343   0.12167
 ITU=  0  0  0  0
     Eigenvalues ---    0.11085   0.31039   0.41890
 Eigenvectors required to have negative eigenvalues:
                          A1        R1        R2
   1                    0.97430  -0.21200   0.07610
 RFO step:  Lambda0=1.394203136D-01 Lambda=-9.58248314D-06.
 Linear search not attempted -- option 19 set.
 Iteration  1 RMS(Cart)=  0.00327188 RMS(Int)=  0.00000803
 Iteration  2 RMS(Cart)=  0.00000922 RMS(Int)=  0.00000000
 Iteration  3 RMS(Cart)=  0.00000000 RMS(Int)=  0.00000000
 ClnCor:  largest displacement from symmetrization is 9.93D-16 for atom     3.
 Variable       Old X    -DE/DX   Delta X   Delta X   Delta X     New X
                                 (Linear)    (Quad)   (Total)
    R1        3.13070   0.01359   0.00000  -0.00037  -0.00037   3.13033
    R2        1.84807  -0.00678   0.00000  -0.00436  -0.00436   1.84372
    A1        2.20272  -0.06129   0.00000   0.00518   0.00518   2.20790
         Item               Value     Threshold  Converged?
 Maximum Force            0.061290     0.000450     NO 
 RMS     Force            0.036455     0.000300     NO 
 Maximum Displacement     0.003321     0.001800     NO 
 RMS     Displacement     0.003269     0.001200     NO 
 Predicted change in Energy= 2.989729D-04
 GradGradGradGradGradGradGradGradGradGradGradGradGradGradGradGradGradGrad

                          Input orientation:                          
 ---------------------------------------------------------------------
 Center     Atomic      Atomic             Coordinates (Angstroms)
 Number     Number       Type             X           Y           Z
 ---------------------------------------------------------------------
      1         17           0       -3.447059    3.652509   -1.272963
      2          8           0       -1.952748    4.248744   -1.667339
      3          1           0       -1.498415    5.001847   -1.245063
 ---------------------------------------------------------------------
                    Distance matrix (angstroms):
                    1          2          3
     1  Cl   0.000000
     2  O    1.656501   0.000000
     3  H    2.370380   0.975653   0.000000
 Stoichiometry    ClHO
 Framework group  CS[SG(ClHO)]
 Deg. of freedom     3
 Full point group                 CS      NOp   2
 Largest Abelian subgroup         CS      NOp   2
 Largest concise Abelian subgroup C1      NOp   1
                         Standard orientation:                         
 ---------------------------------------------------------------------
 Center     Atomic      Atomic             Coordinates (Angstroms)
 Number     Number       Type             X           Y           Z
 ---------------------------------------------------------------------
      1         17           0        0.030164   -0.595727    0.000000
      2          8           0        0.030164    1.060775    0.000000
      3          1           0       -0.754090    1.641157   -0.000000
 ---------------------------------------------------------------------
 Rotational constants (GHZ):         913.3683748          15.2759924          15.0247057
 Standard basis: SVP (5D, 7F)
 There are    29 symmetry adapted cartesian basis functions of A'  symmetry.
 There are    10 symmetry adapted cartesian basis functions of A"  symmetry.
 There are    27 symmetry adapted basis functions of A'  symmetry.
 There are    10 symmetry adapted basis functions of A"  symmetry.
    37 basis functions,    69 primitive gaussians,    39 cartesian basis functions
    13 alpha electrons       13 beta electrons
       nuclear repulsion energy        51.5800883626 Hartrees.
 NAtoms=    3 NActive=    3 NUniq=    3 SFac= 1.00D+00 NAtFMM=   60 NAOKFM=F Big=F
 Integral buffers will be    131072 words long.
 Raffenetti 2 integral format.
 Two-electron integral symmetry is turned on.
 Nuclear repulsion after empirical dispersion term =       51.5784924547 Hartrees.
 One-electron integrals computed using PRISM.
 NBasis=    37 RedAO= T EigKep=  3.49D-02  NBF=    27    10
 NBsUse=    37 1.00D-06 EigRej= -1.00D+00 NBFU=    27    10
 Initial guess from the checkpoint file:  "/tmp/Gau-22484.chk"
 B after Tr=    -0.000000    0.000000   -0.000000
         Rot=    1.000000   -0.000000    0.000000    0.000270 Ang=   0.03 deg.
 Initial guess orbital symmetries:
       Occupied  (A') (A') (A') (A') (A') (A") (A') (A') (A') (A')
                 (A") (A') (A")
       Virtual   (A') (A') (A') (A') (A') (A") (A') (A') (A") (A')
                 (A") (A') (A") (A') (A') (A') (A") (A') (A') (A")
                 (A') (A") (A') (A')
 Keep R1 ints in memory in symmetry-blocked form, NReq=7153137.
 Requested convergence on RMS density matrix=1.00D-08 within 128 cycles.
 Requested convergence on MAX density matrix=1.00D-06.
 Requested convergence on             energy=1.00D-06.
 No special actions if energy rises.
 SCF Done:  E(RB3LYP) =  -535.745540771     A.U. after    7 cycles
            NFock=  7  Conv=0.83D-08     -V/T= 2.0025
 Calling FoFJK, ICntrl=      2127 FMM=F ISym2X=1 I1Cent= 0 IOpClX= 0 NMat=1 NMatS=1 NMatT=0.
 ***** Axes restored to original set *****
 -------------------------------------------------------------------
 Center     Atomic                   Forces (Hartrees/Bohr)
 Number     Number              X              Y              Z
 -------------------------------------------------------------------
      1       17          -0.013872858    0.008877957    0.017327493
      2        8           0.042165694   -0.009383376   -0.035977515
      3        1          -0.028292836    0.000505419    0.018650022
 -------------------------------------------------------------------
 Cartesian Forces:  Max     0.042165694 RMS     0.023286751

 GradGradGradGradGradGradGradGradGradGradGradGradGradGradGradGradGradGrad
 Berny optimization.
 FormGI is forming the generalized inverse of G from B-inverse, IUseBI=4.
 Internal  Forces:  Max     0.061878031 RMS     0.036659916
 Search for a saddle point.
 Step number   7 out of a maximum of  100
 All quantities printed in internal units (Hartrees-Bohrs-Radians)
 Swapping is turned off.
 Update second derivatives using D2CorX and points    4    5    6    7
 The second derivative matrix:
                          R1        R2        A1
           R1           0.30429
           R2          -0.01049   0.48817
           A1           0.04002   0.01035   0.12515
 ITU=  0  0  0  0
     Eigenvalues ---    0.11621   0.31245   0.48895
 Eigenvectors required to have negative eigenvalues:
                          A1        R1        R2
   1                    0.97719  -0.20978  -0.03310
 RFO step:  Lambda0=1.439070950D-01 Lambda=-9.48095416D-05.
 Linear search not attempted -- option 19 set.
 Iteration  1 RMS(Cart)=  0.00889143 RMS(Int)=  0.00005790
 Iteration  2 RMS(Cart)=  0.00006837 RMS(Int)=  0.00000000
 Iteration  3 RMS(Cart)=  0.00000000 RMS(Int)=  0.00000000
 ClnCor:  largest displacement from symmetrization is 2.88D-15 for atom     3.
 Variable       Old X    -DE/DX   Delta X   Delta X   Delta X     New X
                                 (Linear)    (Quad)   (Total)
    R1        3.13033   0.01344   0.00000  -0.00269  -0.00269   3.12765
    R2        1.84372  -0.00471   0.00000  -0.01438  -0.01438   1.82934
    A1        2.20790  -0.06188   0.00000   0.01319   0.01319   2.22108
         Item               Value     Threshold  Converged?
 Maximum Force            0.061878     0.000450     NO 
 RMS     Force            0.036660     0.000300     NO 
 Maximum Displacement     0.009107     0.001800     NO 
 RMS     Displacement     0.008877     0.001200     NO 
 Predicted change in Energy= 8.430646D-04
 GradGradGradGradGradGradGradGradGradGradGradGradGradGradGradGradGradGrad

                          Input orientation:                          
 ---------------------------------------------------------------------
 Center     Atomic      Atomic             Coordinates (Angstroms)
 Number     Number       Type             X           Y           Z
 ---------------------------------------------------------------------
      1         17           0       -3.446569    3.651310   -1.274414
      2          8           0       -1.954291    4.252781   -1.662520
      3          1           0       -1.497362    4.999008   -1.248431
 ---------------------------------------------------------------------
                    Distance matrix (angstroms):
                    1          2          3
     1  Cl   0.000000
     2  O    1.655079   0.000000
     3  H    2.369889   0.968043   0.000000
 Stoichiometry    ClHO
 Framework group  CS[SG(ClHO)]
 Deg. of freedom     3
 Full point group                 CS      NOp   2
 Largest Abelian subgroup         CS      NOp   2
 Largest concise Abelian subgroup C1      NOp   1
                         Standard orientation:                         
 ---------------------------------------------------------------------
 Center     Atomic      Atomic             Coordinates (Angstroms)
 Number     Number       Type             X           Y           Z
 ---------------------------------------------------------------------
      1         17           0        0.029634   -0.595453    0.000000
      2          8           0        0.029634    1.059626   -0.000000
      3          1           0       -0.740842    1.645694   -0.000000
 ---------------------------------------------------------------------
 Rotational constants (GHZ):         946.8868395          15.2932187          15.0501430
 Standard basis: SVP (5D, 7F)
 There are    29 symmetry adapted cartesian basis functions of A'  symmetry.
 There are    10 symmetry adapted cartesian basis functions of A"  symmetry.
 There are    27 symmetry adapted basis functions of A'  symmetry.
 There are    10 symmetry adapted basis functions of A"  symmetry.
    37 basis functions,    69 primitive gaussians,    39 cartesian basis functions
    13 alpha electrons       13 beta electrons
       nuclear repulsion energy        51.6523132137 Hartrees.
 NAtoms=    3 NActive=    3 NUniq=    3 SFac= 1.00D+00 NAtFMM=   60 NAOKFM=F Big=F
 Integral buffers will be    131072 words long.
 Raffenetti 2 integral format.
 Two-electron integral symmetry is turned on.
 Nuclear repulsion after empirical dispersion term =       51.6507173011 Hartrees.
 One-electron integrals computed using PRISM.
 NBasis=    37 RedAO= T EigKep=  3.49D-02  NBF=    27    10
 NBsUse=    37 1.00D-06 EigRej= -1.00D+00 NBFU=    27    10
 Initial guess from the checkpoint file:  "/tmp/Gau-22484.chk"
 B after Tr=     0.000000    0.000000   -0.000000
         Rot=    1.000000   -0.000000    0.000000    0.000715 Ang=   0.08 deg.
 Initial guess orbital symmetries:
       Occupied  (A') (A') (A') (A') (A') (A") (A') (A') (A') (A')
                 (A") (A') (A")
       Virtual   (A') (A') (A') (A') (A') (A") (A') (A') (A") (A')
                 (A") (A') (A") (A') (A') (A') (A") (A') (A') (A")
                 (A') (A") (A') (A')
 Keep R1 ints in memory in symmetry-blocked form, NReq=7153137.
 Requested convergence on RMS density matrix=1.00D-08 within 128 cycles.
 Requested convergence on MAX density matrix=1.00D-06.
 Requested convergence on             energy=1.00D-06.
 No special actions if energy rises.
 SCF Done:  E(RB3LYP) =  -535.744696683     A.U. after    8 cycles
            NFock=  8  Conv=0.62D-08     -V/T= 2.0025
 Calling FoFJK, ICntrl=      2127 FMM=F ISym2X=1 I1Cent= 0 IOpClX= 0 NMat=1 NMatS=1 NMatT=0.
 ***** Axes restored to original set *****
 -------------------------------------------------------------------
 Center     Atomic                   Forces (Hartrees/Bohr)
 Number     Number              X              Y              Z
 -------------------------------------------------------------------
      1       17          -0.014087542    0.009074304    0.017651541
      2        8           0.039721770   -0.015387932   -0.040101248
      3        1          -0.025634228    0.006313628    0.022449708
 -------------------------------------------------------------------
 Cartesian Forces:  Max     0.040101248 RMS     0.024074101

 GradGradGradGradGradGradGradGradGradGradGradGradGradGradGradGradGradGrad
 Berny optimization.
 FormGI is forming the generalized inverse of G from B-inverse, IUseBI=4.
 Internal  Forces:  Max     0.063247806 RMS     0.037368983
 Search for a saddle point.
 Step number   8 out of a maximum of  100
 All quantities printed in internal units (Hartrees-Bohrs-Radians)
 Swapping is turned off.
 Update second derivatives using D2CorX and points    5    6    7    8
 The second derivative matrix:
                          R1        R2        A1
           R1           0.30366
           R2          -0.01369   0.50049
           A1           0.03945   0.00582   0.11825
 ITU=  0  0  0  0
     Eigenvalues ---    0.11002   0.31091   0.50146
 Eigenvectors required to have negative eigenvalues:
                          A1        R1        R2
   1                    0.97934  -0.20105  -0.02164
 RFO step:  Lambda0=1.399466176D-01 Lambda=-2.92912019D-06.
 Linear search not attempted -- option 19 set.
 Iteration  1 RMS(Cart)=  0.00265125 RMS(Int)=  0.00000306
 Iteration  2 RMS(Cart)=  0.00000230 RMS(Int)=  0.00000000
 Iteration  3 RMS(Cart)=  0.00000000 RMS(Int)=  0.00000000
 ClnCor:  largest displacement from symmetrization is 9.93D-16 for atom     2.
 Variable       Old X    -DE/DX   Delta X   Delta X   Delta X     New X
                                 (Linear)    (Quad)   (Total)
    R1        3.12765   0.01354   0.00000   0.00124   0.00124   3.12889
    R2        1.82934   0.00237   0.00000   0.00192   0.00192   1.83126
    A1        2.22108  -0.06325   0.00000   0.00306   0.00306   2.22414
         Item               Value     Threshold  Converged?
 Maximum Force            0.063248     0.000450     NO 
 RMS     Force            0.037369     0.000300     NO 
 Maximum Displacement     0.002984     0.001800     NO 
 RMS     Displacement     0.002652     0.001200     NO 
 Predicted change in Energy= 1.737630D-04
 GradGradGradGradGradGradGradGradGradGradGradGradGradGradGradGradGradGrad

                          Input orientation:                          
 ---------------------------------------------------------------------
 Center     Atomic      Atomic             Coordinates (Angstroms)
 Number     Number       Type             X           Y           Z
 ---------------------------------------------------------------------
      1         17           0       -3.447590    3.650335   -1.274683
      2          8           0       -1.954849    4.253016   -1.661939
      3          1           0       -1.495783    4.999748   -1.248744
 ---------------------------------------------------------------------
                    Distance matrix (angstroms):
                    1          2          3
     1  Cl   0.000000
     2  O    1.655738   0.000000
     3  H    2.373002   0.969062   0.000000
 Stoichiometry    ClHO
 Framework group  CS[SG(ClHO)]
 Deg. of freedom     3
 Full point group                 CS      NOp   2
 Largest Abelian subgroup         CS      NOp   2
 Largest concise Abelian subgroup C1      NOp   1
                         Standard orientation:                         
 ---------------------------------------------------------------------
 Center     Atomic      Atomic             Coordinates (Angstroms)
 Number     Number       Type             X           Y           Z
 ---------------------------------------------------------------------
      1         17           0        0.029596   -0.595795    0.000000
      2          8           0        0.029596    1.059943   -0.000000
      3          1           0       -0.739893    1.648982   -0.000000
 ---------------------------------------------------------------------
 Rotational constants (GHZ):         949.5826886          15.2767551          15.0348761
 Standard basis: SVP (5D, 7F)
 There are    29 symmetry adapted cartesian basis functions of A'  symmetry.
 There are    10 symmetry adapted cartesian basis functions of A"  symmetry.
 There are    27 symmetry adapted basis functions of A'  symmetry.
 There are    10 symmetry adapted basis functions of A"  symmetry.
    37 basis functions,    69 primitive gaussians,    39 cartesian basis functions
    13 alpha electrons       13 beta electrons
       nuclear repulsion energy        51.6254364128 Hartrees.
 NAtoms=    3 NActive=    3 NUniq=    3 SFac= 1.00D+00 NAtFMM=   60 NAOKFM=F Big=F
 Integral buffers will be    131072 words long.
 Raffenetti 2 integral format.
 Two-electron integral symmetry is turned on.
 Nuclear repulsion after empirical dispersion term =       51.6238408810 Hartrees.
 One-electron integrals computed using PRISM.
 NBasis=    37 RedAO= T EigKep=  3.49D-02  NBF=    27    10
 NBsUse=    37 1.00D-06 EigRej= -1.00D+00 NBFU=    27    10
 Initial guess from the checkpoint file:  "/tmp/Gau-22484.chk"
 B after Tr=     0.000000   -0.000000    0.000000
         Rot=    1.000000    0.000000   -0.000000    0.000114 Ang=   0.01 deg.
 Initial guess orbital symmetries:
       Occupied  (A') (A') (A') (A') (A') (A") (A') (A') (A') (A')
                 (A") (A') (A")
       Virtual   (A') (A') (A') (A') (A') (A") (A') (A') (A") (A')
                 (A") (A') (A") (A') (A') (A') (A") (A') (A') (A")
                 (A') (A") (A') (A')
 Keep R1 ints in memory in symmetry-blocked form, NReq=7153137.
 Requested convergence on RMS density matrix=1.00D-08 within 128 cycles.
 Requested convergence on MAX density matrix=1.00D-06.
 Requested convergence on             energy=1.00D-06.
 No special actions if energy rises.
 SCF Done:  E(RB3LYP) =  -535.744522911     A.U. after    8 cycles
            NFock=  8  Conv=0.29D-08     -V/T= 2.0025
 Calling FoFJK, ICntrl=      2127 FMM=F ISym2X=1 I1Cent= 0 IOpClX= 0 NMat=1 NMatS=1 NMatT=0.
 ***** Axes restored to original set *****
 -------------------------------------------------------------------
 Center     Atomic                   Forces (Hartrees/Bohr)
 Number     Number              X              Y              Z
 -------------------------------------------------------------------
      1       17          -0.013710348    0.009309779    0.017632561
      2        8           0.039923808   -0.014940491   -0.039806757
      3        1          -0.026213459    0.005630713    0.022174196
 -------------------------------------------------------------------
 Cartesian Forces:  Max     0.039923808 RMS     0.024031934

 GradGradGradGradGradGradGradGradGradGradGradGradGradGradGradGradGradGrad
 Berny optimization.
 FormGI is forming the generalized inverse of G from B-inverse, IUseBI=4.
 Internal  Forces:  Max     0.063665706 RMS     0.037535394
 Search for a saddle point.
 Step number   9 out of a maximum of  100
 All quantities printed in internal units (Hartrees-Bohrs-Radians)
 Swapping is turned off.
 Update second derivatives using D2CorX and points    6    7    8    9
 The second derivative matrix:
                          R1        R2        A1
           R1           0.29923
           R2          -0.01338   0.50657
           A1           0.03290   0.01188   0.11584
 ITU=  0  0  0  0
     Eigenvalues ---    0.10963   0.30434   0.50768
 Eigenvectors required to have negative eigenvalues:
                          A1        R1        R2
   1                    0.98424  -0.17326  -0.03530
 RFO step:  Lambda0=1.398250223D-01 Lambda=-1.27744840D-05.
 Linear search not attempted -- option 19 set.
 Iteration  1 RMS(Cart)=  0.00550099 RMS(Int)=  0.00001262
 Iteration  2 RMS(Cart)=  0.00001102 RMS(Int)=  0.00000000
 Iteration  3 RMS(Cart)=  0.00000000 RMS(Int)=  0.00000000
 ClnCor:  largest displacement from symmetrization is 2.22D-15 for atom     2.
 Variable       Old X    -DE/DX   Delta X   Delta X   Delta X     New X
                                 (Linear)    (Quad)   (Total)
    R1        3.12889   0.01310   0.00000   0.00487   0.00487   3.13376
    R2        1.83126   0.00138   0.00000  -0.00190  -0.00190   1.82936
    A1        2.22414  -0.06367   0.00000   0.00716   0.00716   2.23130
         Item               Value     Threshold  Converged?
 Maximum Force            0.063666     0.000450     NO 
 RMS     Force            0.037535     0.000300     NO 
 Maximum Displacement     0.004953     0.001800     NO 
 RMS     Displacement     0.005497     0.001200     NO 
 Predicted change in Energy= 4.030178D-04
 GradGradGradGradGradGradGradGradGradGradGradGradGradGradGradGradGradGrad

                          Input orientation:                          
 ---------------------------------------------------------------------
 Center     Atomic      Atomic             Coordinates (Angstroms)
 Number     Number       Type             X           Y           Z
 ---------------------------------------------------------------------
      1         17           0       -3.449863    3.648221   -1.275228
      2          8           0       -1.955197    4.254758   -1.660064
      3          1           0       -1.493162    5.000120   -1.250074
 ---------------------------------------------------------------------
                    Distance matrix (angstroms):
                    1          2          3
     1  Cl   0.000000
     2  O    1.658316   0.000000
     3  H    2.378432   0.968057   0.000000
 Stoichiometry    ClHO
 Framework group  CS[SG(ClHO)]
 Deg. of freedom     3
 Full point group                 CS      NOp   2
 Largest Abelian subgroup         CS      NOp   2
 Largest concise Abelian subgroup C1      NOp   1
                         Standard orientation:                         
 ---------------------------------------------------------------------
 Center     Atomic      Atomic             Coordinates (Angstroms)
 Number     Number       Type             X           Y           Z
 ---------------------------------------------------------------------
      1         17           0        0.029402   -0.596875   -0.000000
      2          8           0        0.029402    1.061440    0.000000
      3          1           0       -0.735058    1.655355    0.000000
 ---------------------------------------------------------------------
 Rotational constants (GHZ):         962.4908573          15.2233875          14.9863534
 Standard basis: SVP (5D, 7F)
 There are    29 symmetry adapted cartesian basis functions of A'  symmetry.
 There are    10 symmetry adapted cartesian basis functions of A"  symmetry.
 There are    27 symmetry adapted basis functions of A'  symmetry.
 There are    10 symmetry adapted basis functions of A"  symmetry.
    37 basis functions,    69 primitive gaussians,    39 cartesian basis functions
    13 alpha electrons       13 beta electrons
       nuclear repulsion energy        51.5537485815 Hartrees.
 NAtoms=    3 NActive=    3 NUniq=    3 SFac= 1.00D+00 NAtFMM=   60 NAOKFM=F Big=F
 Integral buffers will be    131072 words long.
 Raffenetti 2 integral format.
 Two-electron integral symmetry is turned on.
 Nuclear repulsion after empirical dispersion term =       51.5521537767 Hartrees.
 One-electron integrals computed using PRISM.
 NBasis=    37 RedAO= T EigKep=  3.52D-02  NBF=    27    10
 NBsUse=    37 1.00D-06 EigRej= -1.00D+00 NBFU=    27    10
 Initial guess from the checkpoint file:  "/tmp/Gau-22484.chk"
 B after Tr=    -0.000000    0.000000   -0.000000
         Rot=    1.000000   -0.000000    0.000000    0.000360 Ang=   0.04 deg.
 Initial guess orbital symmetries:
       Occupied  (A') (A') (A') (A') (A') (A") (A') (A') (A') (A')
                 (A") (A') (A")
       Virtual   (A') (A') (A') (A') (A') (A") (A') (A') (A") (A')
                 (A") (A') (A") (A') (A') (A') (A") (A') (A') (A")
                 (A') (A") (A') (A')
 Keep R1 ints in memory in symmetry-blocked form, NReq=7153137.
 Requested convergence on RMS density matrix=1.00D-08 within 128 cycles.
 Requested convergence on MAX density matrix=1.00D-06.
 Requested convergence on             energy=1.00D-06.
 No special actions if energy rises.
 SCF Done:  E(RB3LYP) =  -535.744119832     A.U. after    8 cycles
            NFock=  8  Conv=0.44D-08     -V/T= 2.0025
 Calling FoFJK, ICntrl=      2127 FMM=F ISym2X=1 I1Cent= 0 IOpClX= 0 NMat=1 NMatS=1 NMatT=0.
 ***** Axes restored to original set *****
 -------------------------------------------------------------------
 Center     Atomic                   Forces (Hartrees/Bohr)
 Number     Number              X              Y              Z
 -------------------------------------------------------------------
      1       17          -0.012262552    0.010080582    0.017433579
      2        8           0.038368684   -0.016672325   -0.040450061
      3        1          -0.026106132    0.006591743    0.023016482
 -------------------------------------------------------------------
 Cartesian Forces:  Max     0.040450061 RMS     0.024030045

 GradGradGradGradGradGradGradGradGradGradGradGradGradGradGradGradGradGrad
 Berny optimization.
 FormGI is forming the generalized inverse of G from B-inverse, IUseBI=4.
 Internal  Forces:  Max     0.064656397 RMS     0.037930848
 Search for a saddle point.
 Step number  10 out of a maximum of  100
 All quantities printed in internal units (Hartrees-Bohrs-Radians)
 Swapping is turned off.
 Update second derivatives using D2CorX and points    7    8    9   10
 The second derivative matrix:
                          R1        R2        A1
           R1           0.29501
           R2          -0.01562   0.50750
           A1           0.03047   0.00730   0.11962
 ITU=  0  0  0  0
     Eigenvalues ---    0.11423   0.29919   0.50871
 Eigenvectors required to have negative eigenvalues:
                          A1        R1        R2
   1                    0.98543  -0.16824  -0.02498
 RFO step:  Lambda0=1.441690228D-01 Lambda=-1.52827198D-06.
 Linear search not attempted -- option 19 set.
 Iteration  1 RMS(Cart)=  0.00190971 RMS(Int)=  0.00000156
 Iteration  2 RMS(Cart)=  0.00000118 RMS(Int)=  0.00000000
 Iteration  3 RMS(Cart)=  0.00000000 RMS(Int)=  0.00000000
 ClnCor:  largest displacement from symmetrization is 1.60D-15 for atom     3.
 Variable       Old X    -DE/DX   Delta X   Delta X   Delta X     New X
                                 (Linear)    (Quad)   (Total)
    R1        3.13376   0.01141   0.00000   0.00094   0.00094   3.13470
    R2        1.82936   0.00236   0.00000   0.00141   0.00141   1.83077
    A1        2.23130  -0.06466   0.00000   0.00217   0.00217   2.23347
         Item               Value     Threshold  Converged?
 Maximum Force            0.064656     0.000450     NO 
 RMS     Force            0.037931     0.000300     NO 
 Maximum Displacement     0.002148     0.001800     NO 
 RMS     Displacement     0.001910     0.001200     NO 
 Predicted change in Energy= 1.274719D-04
 GradGradGradGradGradGradGradGradGradGradGradGradGradGradGradGradGradGrad

                          Input orientation:                          
 ---------------------------------------------------------------------
 Center     Atomic      Atomic             Coordinates (Angstroms)
 Number     Number       Type             X           Y           Z
 ---------------------------------------------------------------------
      1         17           0       -3.450607    3.647518   -1.275416
      2          8           0       -1.955589    4.254926   -1.659653
      3          1           0       -1.492025    5.000656   -1.250296
 ---------------------------------------------------------------------
                    Distance matrix (angstroms):
                    1          2          3
     1  Cl   0.000000
     2  O    1.658813   0.000000
     3  H    2.380684   0.968803   0.000000
 Stoichiometry    ClHO
 Framework group  CS[SG(ClHO)]
 Deg. of freedom     3
 Full point group                 CS      NOp   2
 Largest Abelian subgroup         CS      NOp   2
 Largest concise Abelian subgroup C1      NOp   1
                         Standard orientation:                         
 ---------------------------------------------------------------------
 Center     Atomic      Atomic             Coordinates (Angstroms)
 Number     Number       Type             X           Y           Z
 ---------------------------------------------------------------------
      1         17           0        0.029375   -0.597129    0.000000
      2          8           0        0.029375    1.061684   -0.000000
      3          1           0       -0.734380    1.657718   -0.000000
 ---------------------------------------------------------------------
 Rotational constants (GHZ):         964.4601536          15.2112284          14.9750456
 Standard basis: SVP (5D, 7F)
 There are    29 symmetry adapted cartesian basis functions of A'  symmetry.
 There are    10 symmetry adapted cartesian basis functions of A"  symmetry.
 There are    27 symmetry adapted basis functions of A'  symmetry.
 There are    10 symmetry adapted basis functions of A"  symmetry.
    37 basis functions,    69 primitive gaussians,    39 cartesian basis functions
    13 alpha electrons       13 beta electrons
       nuclear repulsion energy        51.5337959771 Hartrees.
 NAtoms=    3 NActive=    3 NUniq=    3 SFac= 1.00D+00 NAtFMM=   60 NAOKFM=F Big=F
 Integral buffers will be    131072 words long.
 Raffenetti 2 integral format.
[...]
           R2          -0.01401   0.51293
           A1           0.03780   0.00858   0.11049
 ITU=  0  0  0  0
     Eigenvalues ---    0.10258   0.29766   0.51391
 Eigenvectors required to have negative eigenvalues:
                          A1        R1        R2
   1                    0.97965  -0.19884  -0.02727
 RFO step:  Lambda0=1.360342475D-01 Lambda= 0.00000000D+00.
 Linear search not attempted -- option 19 set.
 Iteration  1 RMS(Cart)=  0.00000008 RMS(Int)=  0.00000000
 ClnCor:  largest displacement from symmetrization is 5.22D-15 for atom     3.
 Variable       Old X    -DE/DX   Delta X   Delta X   Delta X     New X
                                 (Linear)    (Quad)   (Total)
    R1        3.12484   0.01341   0.00000  -0.00000  -0.00000   3.12484
    R2        1.82988   0.00184   0.00000  -0.00000  -0.00000   1.82988
    A1        2.24690  -0.06609   0.00000   0.00000   0.00000   2.24690
         Item               Value     Threshold  Converged?
 Maximum Force            0.066091     0.000450     NO 
 RMS     Force            0.038950     0.000300     NO 
 Maximum Displacement     0.000000     0.001800     YES
 RMS     Displacement     0.000000     0.001200     YES
 Predicted change in Energy= 8.229185D-09
 GradGradGradGradGradGradGradGradGradGradGradGradGradGradGradGradGradGrad

                          Input orientation:                          
 ---------------------------------------------------------------------
 Center     Atomic      Atomic             Coordinates (Angstroms)
 Number     Number       Type             X           Y           Z
 ---------------------------------------------------------------------
      1         17           0       -3.449382    3.646486   -1.277181
      2          8           0       -1.959681    4.256277   -1.655744
      3          1           0       -1.489159    5.000336   -1.252440
 ---------------------------------------------------------------------
                    Distance matrix (angstroms):
                    1          2          3
     1  Cl   0.000000
     2  O    1.653592   0.000000
     3  H    2.382435   0.968333   0.000000
 Stoichiometry    ClHO
 Framework group  CS[SG(ClHO)]
 Deg. of freedom     3
 Full point group                 CS      NOp   2
 Largest Abelian subgroup         CS      NOp   2
 Largest concise Abelian subgroup C1      NOp   1
                         Standard orientation:                         
 ---------------------------------------------------------------------
 Center     Atomic      Atomic             Coordinates (Angstroms)
 Number     Number       Type             X           Y           Z
 ---------------------------------------------------------------------
      1         17           0        0.029051   -0.595703   -0.000000
      2          8           0        0.029051    1.057889    0.000000
      3          1           0       -0.726266    1.663831    0.000000
 ---------------------------------------------------------------------
 Rotational constants (GHZ):         987.3330299          15.2888204          15.0556836
 Standard basis: SVP (5D, 7F)
 There are    29 symmetry adapted cartesian basis functions of A'  symmetry.
 There are    10 symmetry adapted cartesian basis functions of A"  symmetry.
 There are    27 symmetry adapted basis functions of A'  symmetry.
 There are    10 symmetry adapted basis functions of A"  symmetry.
    37 basis functions,    69 primitive gaussians,    39 cartesian basis functions
    13 alpha electrons       13 beta electrons
       nuclear repulsion energy        51.6701273511 Hartrees.
 NAtoms=    3 NActive=    3 NUniq=    3 SFac= 1.00D+00 NAtFMM=   60 NAOKFM=F Big=F
 Integral buffers will be    131072 words long.
 Raffenetti 2 integral format.
 Two-electron integral symmetry is turned on.
 Nuclear repulsion after empirical dispersion term =       51.6685329466 Hartrees.
 One-electron integrals computed using PRISM.
 NBasis=    37 RedAO= T EigKep=  3.50D-02  NBF=    27    10
 NBsUse=    37 1.00D-06 EigRej= -1.00D+00 NBFU=    27    10
 Initial guess from the checkpoint file:  "/tmp/Gau-22484.chk"
 B after Tr=     0.000000   -0.000000   -0.000000
         Rot=    1.000000   -0.000000    0.000000    0.000000 Ang=   0.00 deg.
 Initial guess orbital symmetries:
       Occupied  (A') (A') (A') (A') (A') (A") (A') (A') (A') (A')
                 (A") (A') (A")
       Virtual   (A') (A') (A') (A') (A') (A") (A') (A') (A") (A')
                 (A") (A') (A") (A') (A') (A') (A") (A') (A') (A")
                 (A') (A") (A') (A')
 Keep R1 ints in memory in symmetry-blocked form, NReq=7153137.
 Requested convergence on RMS density matrix=1.00D-08 within 128 cycles.
 Requested convergence on MAX density matrix=1.00D-06.
 Requested convergence on             energy=1.00D-06.
 No special actions if energy rises.
 SCF Done:  E(RB3LYP) =  -535.742990091     A.U. after    2 cycles
            NFock=  2  Conv=0.85D-08     -V/T= 2.0025
 Calling FoFJK, ICntrl=      2127 FMM=F ISym2X=1 I1Cent= 0 IOpClX= 0 NMat=1 NMatS=1 NMatT=0.
 ***** Axes restored to original set *****
 -------------------------------------------------------------------
 Center     Atomic                   Forces (Hartrees/Bohr)
 Number     Number              X              Y              Z
 -------------------------------------------------------------------
      1       17          -0.014195372    0.009631300    0.018248918
      2        8           0.040936700   -0.016233484   -0.041683250
      3        1          -0.026741328    0.006602185    0.023434332
 -------------------------------------------------------------------
 Cartesian Forces:  Max     0.041683250 RMS     0.024971054

 GradGradGradGradGradGradGradGradGradGradGradGradGradGradGradGradGradGrad
 Berny optimization.
 FormGI is forming the generalized inverse of G from B-inverse, IUseBI=4.
 Internal  Forces:  Max     0.066091114 RMS     0.038950257
 Search for a saddle point.
 Step number  99 out of a maximum of  100
 All quantities printed in internal units (Hartrees-Bohrs-Radians)
 Swapping is turned off.
 Update second derivatives using D2CorX and points   99
 The second derivative matrix:
                          R1        R2        A1
           R1           0.29072
           R2          -0.01401   0.51293
           A1           0.03780   0.00858   0.11049
 ITU=  0  0  0  0
     Eigenvalues ---    0.10258   0.29766   0.51391
 Eigenvectors required to have negative eigenvalues:
                          A1        R1        R2
   1                    0.97965  -0.19884  -0.02727
 RFO step:  Lambda0=1.360342327D-01 Lambda= 0.00000000D+00.
 Linear search not attempted -- option 19 set.
 Iteration  1 RMS(Cart)=  0.00000006 RMS(Int)=  0.00000000
 ClnCor:  largest displacement from symmetrization is 2.66D-15 for atom     3.
 Variable       Old X    -DE/DX   Delta X   Delta X   Delta X     New X
                                 (Linear)    (Quad)   (Total)
    R1        3.12484   0.01341   0.00000  -0.00000  -0.00000   3.12484
    R2        1.82988   0.00184   0.00000   0.00000   0.00000   1.82988
    A1        2.24690  -0.06609   0.00000   0.00000   0.00000   2.24690
         Item               Value     Threshold  Converged?
 Maximum Force            0.066091     0.000450     NO 
 RMS     Force            0.038950     0.000300     NO 
 Maximum Displacement     0.000000     0.001800     YES
 RMS     Displacement     0.000000     0.001200     YES
 Predicted change in Energy= 4.814292D-09
 GradGradGradGradGradGradGradGradGradGradGradGradGradGradGradGradGradGrad

                          Input orientation:                          
 ---------------------------------------------------------------------
 Center     Atomic      Atomic             Coordinates (Angstroms)
 Number     Number       Type             X           Y           Z
 ---------------------------------------------------------------------
      1         17           0       -3.449382    3.646486   -1.277181
      2          8           0       -1.959681    4.256277   -1.655744
      3          1           0       -1.489159    5.000336   -1.252440
 ---------------------------------------------------------------------
                    Distance matrix (angstroms):
                    1          2          3
     1  Cl   0.000000
     2  O    1.653592   0.000000
     3  H    2.382435   0.968333   0.000000
 Stoichiometry    ClHO
 Framework group  CS[SG(ClHO)]
 Deg. of freedom     3
 Full point group                 CS      NOp   2
 Largest Abelian subgroup         CS      NOp   2
 Largest concise Abelian subgroup C1      NOp   1
                         Standard orientation:                         
 ---------------------------------------------------------------------
 Center     Atomic      Atomic             Coordinates (Angstroms)
 Number     Number       Type             X           Y           Z
 ---------------------------------------------------------------------
      1         17           0        0.029051   -0.595703    0.000000
      2          8           0        0.029051    1.057889   -0.000000
      3          1           0       -0.726266    1.663831    0.000000
 ---------------------------------------------------------------------
 Rotational constants (GHZ):         987.3330753          15.2888205          15.0556837
 Standard basis: SVP (5D, 7F)
 There are    29 symmetry adapted cartesian basis functions of A'  symmetry.
 There are    10 symmetry adapted cartesian basis functions of A"  symmetry.
 There are    27 symmetry adapted basis functions of A'  symmetry.
 There are    10 symmetry adapted basis functions of A"  symmetry.
    37 basis functions,    69 primitive gaussians,    39 cartesian basis functions
    13 alpha electrons       13 beta electrons
       nuclear repulsion energy        51.6701273878 Hartrees.
 NAtoms=    3 NActive=    3 NUniq=    3 SFac= 1.00D+00 NAtFMM=   60 NAOKFM=F Big=F
 Integral buffers will be    131072 words long.
 Raffenetti 2 integral format.
 Two-electron integral symmetry is turned on.
 Nuclear repulsion after empirical dispersion term =       51.6685329833 Hartrees.
 One-electron integrals computed using PRISM.
 NBasis=    37 RedAO= T EigKep=  3.50D-02  NBF=    27    10
 NBsUse=    37 1.00D-06 EigRej= -1.00D+00 NBFU=    27    10
 Initial guess from the checkpoint file:  "/tmp/Gau-22484.chk"
 B after Tr=    -0.000000    0.000000    0.000000
         Rot=    1.000000   -0.000000    0.000000    0.000000 Ang=   0.00 deg.
 Initial guess orbital symmetries:
       Occupied  (A') (A') (A') (A') (A') (A") (A') (A') (A') (A')
                 (A") (A') (A")
       Virtual   (A') (A') (A') (A') (A') (A") (A') (A') (A") (A')
                 (A") (A') (A") (A') (A') (A') (A") (A') (A') (A")
                 (A') (A") (A') (A')
 Keep R1 ints in memory in symmetry-blocked form, NReq=7153137.
 Requested convergence on RMS density matrix=1.00D-08 within 128 cycles.
 Requested convergence on MAX density matrix=1.00D-06.
 Requested convergence on             energy=1.00D-06.
 No special actions if energy rises.
 SCF Done:  E(RB3LYP) =  -535.742990087     A.U. after    1 cycles
            NFock=  1  Conv=0.12D-08     -V/T= 2.0025
 Calling FoFJK, ICntrl=      2127 FMM=F ISym2X=1 I1Cent= 0 IOpClX= 0 NMat=1 NMatS=1 NMatT=0.
 ***** Axes restored to original set *****
 -------------------------------------------------------------------
 Center     Atomic                   Forces (Hartrees/Bohr)
 Number     Number              X              Y              Z
 -------------------------------------------------------------------
      1       17          -0.014195379    0.009631299    0.018248922
      2        8           0.040936729   -0.016233452   -0.041683239
      3        1          -0.026741350    0.006602154    0.023434317
 -------------------------------------------------------------------
 Cartesian Forces:  Max     0.041683239 RMS     0.024971055

 GradGradGradGradGradGradGradGradGradGradGradGradGradGradGradGradGradGrad
 Berny optimization.
 Internal  Forces:  Max     0.066091120 RMS     0.038950261
 Search for a saddle point.
 Step number 100 out of a maximum of  100
 All quantities printed in internal units (Hartrees-Bohrs-Radians)
 Swapping is turned off.
 Update second derivatives using D2CorX and points  100
 The second derivative matrix:
                          R1        R2        A1
           R1           0.29072
           R2          -0.01401   0.51293
           A1           0.03780   0.00858   0.11049
 ITU=  0  0  0  0
     Eigenvalues ---    0.10258   0.29766   0.51391
 Eigenvectors required to have negative eigenvalues:
                          A1        R1        R2
   1                    0.97965  -0.19884  -0.02727
 RFO step:  Lambda0=1.360342380D-01 Lambda= 0.00000000D+00.
 Linear search not attempted -- option 19 set.
 Iteration  1 RMS(Cart)=  0.00000001 RMS(Int)=  0.00000000
 ClnCor:  largest displacement from symmetrization is 9.93D-16 for atom     2.
 Variable       Old X    -DE/DX   Delta X   Delta X   Delta X     New X
                                 (Linear)    (Quad)   (Total)
    R1        3.12484   0.01341   0.00000   0.00000   0.00000   3.12484
    R2        1.82988   0.00184   0.00000  -0.00000  -0.00000   1.82988
    A1        2.24690  -0.06609   0.00000   0.00000   0.00000   2.24690
         Item               Value     Threshold  Converged?
 Maximum Force            0.066091     0.000450     NO 
 RMS     Force            0.038950     0.000300     NO 
 Maximum Displacement     0.000000     0.001800     YES
 RMS     Displacement     0.000000     0.001200     YES
 Predicted change in Energy= 9.475786D-10
 Optimization stopped.
    -- Number of steps exceeded,  NStep= 100
    -- Flag reset to prevent archiving.
                           ----------------------------
                           ! Non-Optimized Parameters !
                           ! (Angstroms and Degrees)  !
 --------------------------                            --------------------------
 ! Name  Definition              Value          Derivative Info.                !
 --------------------------------------------------------------------------------
 ! R1    R(1,2)                  1.6536         -DE/DX =    0.0134              !
 ! R2    R(2,3)                  0.9683         -DE/DX =    0.0018              !
 ! A1    A(1,2,3)              128.7379         -DE/DX =   -0.0661              !
 --------------------------------------------------------------------------------
 GradGradGradGradGradGradGradGradGradGradGradGradGradGradGradGradGradGrad

                          Input orientation:                          
 ---------------------------------------------------------------------
 Center     Atomic      Atomic             Coordinates (Angstroms)
 Number     Number       Type             X           Y           Z
 ---------------------------------------------------------------------
      1         17           0       -3.449382    3.646486   -1.277181
      2          8           0       -1.959681    4.256277   -1.655744
      3          1           0       -1.489159    5.000336   -1.252440
 ---------------------------------------------------------------------
                    Distance matrix (angstroms):
                    1          2          3
     1  Cl   0.000000
     2  O    1.653592   0.000000
     3  H    2.382435   0.968333   0.000000
 Stoichiometry    ClHO
 Framework group  CS[SG(ClHO)]
 Deg. of freedom     3
 Full point group                 CS      NOp   2
 Largest Abelian subgroup         CS      NOp   2
 Largest concise Abelian subgroup C1      NOp   1
                         Standard orientation:                         
 ---------------------------------------------------------------------
 Center     Atomic      Atomic             Coordinates (Angstroms)
 Number     Number       Type             X           Y           Z
 ---------------------------------------------------------------------
      1         17           0        0.029051   -0.595703   -0.000000
      2          8           0        0.029051    1.057889   -0.000000
      3          1           0       -0.726266    1.663831    0.000000
 ---------------------------------------------------------------------
 Rotational constants (GHZ):         987.3330753          15.2888205          15.0556837

 **********************************************************************

            Population analysis using the SCF density.

 **********************************************************************

 Orbital symmetries:
       Occupied  (A') (A') (A') (A') (A') (A") (A') (A') (A') (A')
                 (A") (A') (A")
       Virtual   (A') (A') (A') (A') (A') (A") (A') (A') (A") (A')
                 (A") (A') (A") (A') (A') (A') (A") (A') (A') (A")
                 (A') (A") (A') (A')
 The electronic state is 1-A'.
 Alpha  occ. eigenvalues -- -101.54300 -19.17269  -9.49477  -7.26863  -7.25156
 Alpha  occ. eigenvalues --   -7.25117  -1.04440  -0.79508  -0.54105  -0.41194
 Alpha  occ. eigenvalues --   -0.40099  -0.29318  -0.26649
 Alpha virt. eigenvalues --   -0.05723   0.07745   0.43078   0.54448   0.69885
 Alpha virt. eigenvalues --    0.70189   0.74550   0.76219   0.76248   0.85055
 Alpha virt. eigenvalues --    0.85212   0.95294   0.99379   1.08036   1.17866
 Alpha virt. eigenvalues --    1.21611   1.46036   1.71358   2.17266   2.63132
 Alpha virt. eigenvalues --    2.72360   2.92457   3.08215   3.63520
          Condensed to atoms (all electrons):
               1          2          3
     1  Cl  16.774576   0.093719  -0.019742
     2  O    0.093719   7.960623   0.315585
     3  H   -0.019742   0.315585   0.485676
 Mulliken charges:
               1
     1  Cl   0.151446
     2  O   -0.369927
     3  H    0.218481
 Sum of Mulliken charges =  -0.00000
 Mulliken charges with hydrogens summed into heavy atoms:
               1
     1  Cl   0.151446
     2  O   -0.151446
 Electronic spatial extent (au):  <R**2>=            102.5618
 Charge=             -0.0000 electrons
 Dipole moment (field-independent basis, Debye):
    X=             -1.4879    Y=              0.4826    Z=             -0.0000  Tot=              1.5642
 Quadrupole moment (field-independent basis, Debye-Ang):
   XX=            -17.1810   YY=            -14.3426   ZZ=            -18.5145
   XY=             -2.8931   XZ=             -0.0000   YZ=             -0.0000
 Traceless Quadrupole moment (field-independent basis, Debye-Ang):
   XX=             -0.5016   YY=              2.3368   ZZ=             -1.8352
   XY=             -2.8931   XZ=             -0.0000   YZ=             -0.0000
 Octapole moment (field-independent basis, Debye-Ang**2):
  XXX=             -1.3353  YYY=              5.3962  ZZZ=             -0.0000  XYY=             -4.4466
  XXY=              2.6629  XXZ=             -0.0000  XZZ=             -0.2077  YZZ=              0.7095
  YYZ=             -0.0000  XYZ=             -0.0000
 Hexadecapole moment (field-independent basis, Debye-Ang**3):
 XXXX=            -17.0207 YYYY=            -65.3349 ZZZZ=            -16.5181 XXXY=              0.0635
 XXXZ=              0.0000 YYYX=             -6.5110 YYYZ=             -0.0000 ZZZX=              0.0000
 ZZZY=              0.0000 XXYY=            -14.3086 XXZZ=             -5.7050 YYZZ=            -17.4715
 XXYZ=              0.0000 YYXZ=             -0.0000 ZZXY=              0.4620
 N-N= 5.166853298330D+01 E-N=-1.376400060750D+03  KE= 5.344115705612D+02
 Symmetry A'   KE= 4.836638214215D+02
 Symmetry A"   KE= 5.074774913979D+01


 GARBAGE IN, GARBAGE OUT
 Error termination request processed by link 9999.
 Error termination via Lnk1e in /share/apps/g16.a03/g16/l9999.exe at Thu Mar  6 16:39:38 2025.
 Job cpu time:       0 days  0 hours 13 minutes 24.5 seconds.
 Elapsed time:       0 days  0 hours  1 minutes 44.4 seconds.
 File lengths (MBytes):  RWF=      6 Int=      0 D2E=      0 Chk=      1 Scr=      1
