 Entering Gaussian System, Link 0=g16
 Input=ts.gjf
 Output=ts.log
 Initial command:
 /share/apps/g16.a03/g16/l1.exe "/tmp/Gau-30975.inp" -scrdir="/tmp/"
 Entering Link 1 = /share/apps/g16.a03/g16/l1.exe PID=     30977.
  
 Copyright (c) 1988,1990,1992,1993,1995,1998,2003,2009,2016,
            Gaussian, Inc.  All Rights Reserved.
  
 This is part of the Gaussian(R) 16 program.  It is based on
 the Gaussian(R) 09 system (copyright 2009, Gaussian, Inc.),
 the Gaussian(R) 03 system (copyright 2003, Gaussian, Inc.),
 the Gaussian(R) 98 system (copyright 1998, Gaussian, Inc.),
 the Gaussian(R) 94 system (copyright 1995, Gaussian, Inc.),
 the Gaussian 92(TM) system (copyright 1992, Gaussian, Inc.),
 the Gaussian 90(TM) system (copyright 1990, Gaussian, Inc.),
 the Gaussian 88(TM) system (copyright 1988, Gaussian, Inc.),
 the Gaussian 86(TM) system (copyright 1986, Carnegie Mellon
 University), and the Gaussian 82(TM) system (copyright 1983,
 Carnegie Mellon University). Gaussian is a federally registered
 trademark of Gaussian, Inc.
  
 This software contains proprietary and confidential information,
 including trade secrets, belonging to Gaussian, Inc.
  
 This software is provided under written license and may be
 used, copied, transmitted, or stored only in accord with that
 written license.
  
 The following legend is applicable only to US Government
 contracts under FAR:
  
                    RESTRICTED RIGHTS LEGEND
  
 Use, reproduction and disclosure by the US Government is
 subject to restrictions as set forth in subparagraphs (a)
 and (c) of the Commercial Computer Software - Restricted
 Rights clause in FAR 52.227-19.
  
 Gaussian, Inc.
 340 Quinnipiac St., Bldg. 40, Wallingford CT 06492
  
  
 ---------------------------------------------------------------
 Warning -- This program may not be used in any manner that
 competes with the business of Gaussian, Inc. or will provide
 assistance to any competitor of Gaussian, Inc.  The licensee
 of this program is prohibited from giving any competitor of
 Gaussian, Inc. access to this program.  By using this program,
 the user acknowledges that Gaussian, Inc. is engaged in the
 business of creating and licensing software in the field of
 computational chemistry and represents and warrants to the
 licensee that it is not a competitor of Gaussian, Inc. and that
 it will not use this program in any manner prohibited above.
 ---------------------------------------------------------------
  

 Cite this work as:
 Gaussian 16, Revision A.03,
 M. J. Frisch, G. W. Trucks, H. B. Schlegel, G. E. Scuseria, 
 M. A. Robb, J. R. Cheeseman, G. Scalmani, V. Barone, 
 G. A. Petersson, H. Nakatsuji, X. Li, M. Caricato, A. V. Marenich, 
 J. Bloino, B. G. Janesko, R. Gomperts, B. Mennucci, H. P. Hratchian, 
 J. V. Ortiz, A. F. Izmaylov, J. L. Sonnenberg, D. Williams-Young, 
 F. Ding, F. Lipparini, F. Egidi, J. Goings, B. Peng, A. Petrone, 
 T. Henderson, D. Ranasinghe, V. G. Zakrzewski, J. Gao, N. Rega, 
 G. Zheng, W. Liang, M. Hada, M. Ehara, K. Toyota, R. Fukuda, 
 J. Hasegawa, M. Ishida, T. Nakajima, Y. Honda, O. Kitao, H. Nakai, 
 T. Vreven, K. Throssell, J. A. Montgomery, Jr., J. E. Peralta, 
 F. Ogliaro, M. J. Bearpark, J. J. Heyd, E. N. Brothers, K. N. Kudin, 
 V. N. Staroverov, T. A. Keith, R. Kobayashi, J. Normand, 
 K. Raghavachari, A. P. Rendell, J. C. Burant, S. S. Iyengar, 
 J. Tomasi, M. Cossi, J. M. Millam, M. Klene, C. Adamo, R. Cammi, 
 J. W. Ochterski, R. L. Martin, K. Morokuma, O. Farkas, 
 J. B. Foresman, and D. J. Fox, Gaussian, Inc., Wallingford CT, 2016.
 
 ******************************************
 Gaussian 16:  EM64L-G16RevA.03 25-Dec-2016
                 6-Mar-2025 
 ******************************************
 %nproc=8
 Will use up to    8 processors via shared memory.
 %mem=4000MB
 --------------------------------------------------------------------
 #opt=(noeigen,calcfc,ts,recalc=5,maxcyc=200) freq B3LYP/SVP em=GD3BJ
 --------------------------------------------------------------------
 1/5=1,6=200,10=4,11=1,18=20,26=3,38=1,71=5/1,3;
 2/9=110,12=2,17=6,18=5,40=1/2;
 3/5=18,7=101,11=2,25=1,30=1,71=2,74=-5,124=41,140=1/1,2,3;
 4//1;
 5/5=2,38=5/2;
 8/6=4,10=90,11=11/1;
 11/6=1,8=1,9=11,15=111,16=1/1,2,10;
 10/6=1,13=1/2;
 6/7=2,8=2,9=2,10=2,28=1/1;
 7/10=1,18=20,25=1/1,2,3,16;
 1/5=1,6=200,10=4,11=1,18=20,26=3,71=5/3(2);
 2/9=110/2;
 99//99;
 2/9=110/2;
 3/5=18,7=101,11=2,25=1,30=1,71=1,74=-5,124=41/1,2,3;
 4/5=5,16=3,69=1/1;
 5/5=2,38=5/2;
 7//1,2,3,16;
 1/5=1,6=200,11=1,18=20,26=3,71=5/3(-5);
 2/9=110/2;
 6/7=2,8=2,9=2,10=2,19=2,28=1/1;
 99/9=1/99;
 -----------
 ts-1624.gjf
 -----------
 Symbolic Z-matrix:
 Charge =  0 Multiplicity = 1
 Cl                   -1.98119   4.41303  -1.46321 
 O                    -3.45149   3.46611  -0.87569 
 H                    -3.5129    2.64312  -0.37568 
 

 GradGradGradGradGradGradGradGradGradGradGradGradGradGradGradGradGradGrad
 Berny optimization.
 Initialization pass.
                           ----------------------------
                           !    Initial Parameters    !
                           ! (Angstroms and Degrees)  !
 --------------------------                            --------------------------
 ! Name  Definition              Value          Derivative Info.                !
 --------------------------------------------------------------------------------
 ! R1    R(1,2)                  1.8449         calculate D2E/DX2 analytically  !
 ! R2    R(2,3)                  0.9649         calculate D2E/DX2 analytically  !
 ! A1    A(1,2,3)              130.8063         calculate D2E/DX2 analytically  !
 --------------------------------------------------------------------------------
 Trust Radius=3.00D-01 FncErr=1.00D-07 GrdErr=1.00D-06 EigMax=2.50D+02 EigMin=1.00D-04
 Number of steps in this run=    100 maximum allowed number of steps=    100.
 Search for a saddle point of order  1.
 GradGradGradGradGradGradGradGradGradGradGradGradGradGradGradGradGradGrad

                          Input orientation:                          
 ---------------------------------------------------------------------
 Center     Atomic      Atomic             Coordinates (Angstroms)
 Number     Number       Type             X           Y           Z
 ---------------------------------------------------------------------
      1         17           0       -1.981187    4.413033   -1.463206
      2          8           0       -3.451489    3.466113   -0.875689
      3          1           0       -3.512900    2.643116   -0.375680
 ---------------------------------------------------------------------
                    Distance matrix (angstroms):
                    1          2          3
     1  Cl   0.000000
     2  O    1.844890   0.000000
     3  H    2.580981   0.964938   0.000000
 Stoichiometry    ClHO
 Framework group  CS[SG(ClHO)]
 Deg. of freedom     3
 Full point group                 CS      NOp   2
 Largest Abelian subgroup         CS      NOp   2
 Largest concise Abelian subgroup C1      NOp   1
                         Standard orientation:                         
 ---------------------------------------------------------------------
 Center     Atomic      Atomic             Coordinates (Angstroms)
 Number     Number       Type             X           Y           Z
 ---------------------------------------------------------------------
      1         17           0        0.028092   -0.662869    0.000000
      2          8           0        0.028092    1.182021    0.000000
      3          1           0       -0.702292    1.812611   -0.000000
 ---------------------------------------------------------------------
 Rotational constants (GHZ):        1050.9955491          12.3397805          12.1965799
 Standard basis: SVP (5D, 7F)
 There are    29 symmetry adapted cartesian basis functions of A'  symmetry.
 There are    10 symmetry adapted cartesian basis functions of A"  symmetry.
 There are    27 symmetry adapted basis functions of A'  symmetry.
 There are    10 symmetry adapted basis functions of A"  symmetry.
    37 basis functions,    69 primitive gaussians,    39 cartesian basis functions
    13 alpha electrons       13 beta electrons
       nuclear repulsion energy        46.8821707577 Hartrees.
 NAtoms=    3 NActive=    3 NUniq=    3 SFac= 1.00D+00 NAtFMM=   60 NAOKFM=F Big=F
 Integral buffers will be    131072 words long.
 Raffenetti 2 integral format.
 Two-electron integral symmetry is turned on.
 Nuclear repulsion after empirical dispersion term =       46.8806108726 Hartrees.
 One-electron integrals computed using PRISM.
 NBasis=    37 RedAO= T EigKep=  4.79D-02  NBF=    27    10
 NBsUse=    37 1.00D-06 EigRej= -1.00D+00 NBFU=    27    10
 ExpMin= 1.22D-01 ExpMax= 1.04D+04 ExpMxC= 1.57D+03 IAcc=3 IRadAn=         5 AccDes= 0.00D+00
 Harris functional with IExCor=  402 and IRadAn=       5 diagonalized for initial guess.
 HarFok:  IExCor=  402 AccDes= 0.00D+00 IRadAn=         5 IDoV= 1 UseB2=F ITyADJ=14
 ICtDFT=  3500011 ScaDFX=  1.000000  1.000000  1.000000  1.000000
 FoFCou: FMM=F IPFlag=           0 FMFlag=      100000 FMFlg1=           0
         NFxFlg=           0 DoJE=T BraDBF=F KetDBF=T FulRan=T
         wScrn=  0.000000 ICntrl=       500 IOpCl=  0 I1Cent=   200000004 NGrid=           0
         NMat0=    1 NMatS0=      1 NMatT0=    0 NMatD0=    1 NMtDS0=    0 NMtDT0=    0
 Petite list used in FoFCou.
 Initial guess orbital symmetries:
       Occupied  (A') (A') (A') (A') (A') (A") (A') (A') (A') (A')
                 (A") (A') (A")
       Virtual   (A') (A') (A') (A') (A') (A") (A') (A') (A") (A')
                 (A") (A') (A") (A') (A') (A') (A") (A') (A') (A")
                 (A') (A") (A') (A')
 The electronic state of the initial guess is 1-A'.
 Keep R1 ints in memory in symmetry-blocked form, NReq=7153137.
 Requested convergence on RMS density matrix=1.00D-08 within 128 cycles.
 Requested convergence on MAX density matrix=1.00D-06.
 Requested convergence on             energy=1.00D-06.
 No special actions if energy rises.
 Integral accuracy reduced to 1.0D-05 until final iterations.
 Initial convergence to 1.0D-05 achieved.  Increase integral accuracy.
 SCF Done:  E(RB3LYP) =  -535.731781507     A.U. after   12 cycles
            NFock= 12  Conv=0.62D-08     -V/T= 2.0029
 DoSCS=F DFT=T ScalE2(SS,OS)=  1.000000  1.000000
 Range of M.O.s used for correlation:     1    37
 NBasis=    37 NAE=    13 NBE=    13 NFC=     0 NFV=     0
 NROrb=     37 NOA=    13 NOB=    13 NVA=    24 NVB=    24
 Symmetrizing basis deriv contribution to polar:
 IMax=3 JMax=2 DiffMx= 0.00D+00
 G2DrvN: will do     4 centers at a time, making    1 passes.
 Calling FoFCou, ICntrl=  3107 FMM=F I1Cent=   0 AccDes= 0.00D+00.
 End of G2Drv F.D. properties file   721 does not exist.
 End of G2Drv F.D. properties file   722 does not exist.
 End of G2Drv F.D. properties file   788 does not exist.
          IDoAtm=111
          Differentiating once with respect to nuclear coordinates.
 Keep R1 ints in memory in symmetry-blocked form, NReq=7127942.
          There are    12 degrees of freedom in the 1st order CPHF.  IDoFFX=6 NUNeed=     0.
      6 vectors produced by pass  0 Test12= 2.60D-15 8.33D-09 XBig12= 6.72D-02 1.78D-01.
 AX will form     6 AO Fock derivatives at one time.
      6 vectors produced by pass  1 Test12= 2.60D-15 8.33D-09 XBig12= 3.05D-02 9.24D-02.
      6 vectors produced by pass  2 Test12= 2.60D-15 8.33D-09 XBig12= 8.70D-04 1.09D-02.
      6 vectors produced by pass  3 Test12= 2.60D-15 8.33D-09 XBig12= 1.42D-05 1.29D-03.
      6 vectors produced by pass  4 Test12= 2.60D-15 8.33D-09 XBig12= 8.88D-08 8.81D-05.
      6 vectors produced by pass  5 Test12= 2.60D-15 8.33D-09 XBig12= 1.79D-10 4.58D-06.
      4 vectors produced by pass  6 Test12= 2.60D-15 8.33D-09 XBig12= 1.79D-13 1.50D-07.
 InvSVY:  IOpt=1 It=  1 EMax= 2.22D-16
 Solved reduced A of dimension    40 with     6 vectors.
 End of Minotr F.D. properties file   721 does not exist.
 End of Minotr F.D. properties file   722 does not exist.
 End of Minotr F.D. properties file   788 does not exist.

 **********************************************************************

            Population analysis using the SCF density.

 **********************************************************************

 Orbital symmetries:
       Occupied  (A') (A') (A') (A') (A') (A") (A') (A') (A') (A')
                 (A") (A') (A")
       Virtual   (A') (A') (A') (A') (A') (A") (A') (A') (A") (A")
                 (A') (A') (A") (A') (A') (A') (A") (A') (A') (A")
                 (A') (A") (A') (A')
 The electronic state is 1-A'.
 Alpha  occ. eigenvalues -- -101.55061 -19.18281  -9.49994  -7.27407  -7.25693
 Alpha  occ. eigenvalues --   -7.25668  -0.99947  -0.80530  -0.51875  -0.38803
 Alpha  occ. eigenvalues --   -0.37488  -0.30968  -0.28569
 Alpha virt. eigenvalues --   -0.12665   0.06901   0.44874   0.55080   0.68956
 Alpha virt. eigenvalues --    0.69700   0.71090   0.76223   0.76237   0.84459
 Alpha virt. eigenvalues --    0.84485   0.94429   0.99369   1.03470   1.16103
 Alpha virt. eigenvalues --    1.19121   1.44261   1.70199   2.17674   2.61271
 Alpha virt. eigenvalues --    2.67495   2.93760   2.98240   3.65760
          Condensed to atoms (all electrons):
               1          2          3
     1  Cl  16.759514   0.126811  -0.009958
     2  O    0.126811   7.907653   0.301203
     3  H   -0.009958   0.301203   0.496721
 Mulliken charges:
               1
     1  Cl   0.123633
     2  O   -0.335667
     3  H    0.212034
 Sum of Mulliken charges =  -0.00000
 Mulliken charges with hydrogens summed into heavy atoms:
               1
     1  Cl   0.123633
     2  O   -0.123633
 APT charges:
               1
     1  Cl   0.135190
     2  O   -0.735023
     3  H    0.599832
 Sum of APT charges =  -0.00000
 APT charges with hydrogens summed into heavy atoms:
               1
     1  Cl   0.135190
     2  O   -0.135190
 Electronic spatial extent (au):  <R**2>=            117.0424
 Charge=             -0.0000 electrons
 Dipole moment (field-independent basis, Debye):
    X=             -1.4095    Y=              0.4193    Z=             -0.0000  Tot=              1.4705
 Quadrupole moment (field-independent basis, Debye-Ang):
   XX=            -17.3846   YY=            -13.5688   ZZ=            -18.6617
   XY=             -2.9593   XZ=             -0.0000   YZ=             -0.0000
 Traceless Quadrupole moment (field-independent basis, Debye-Ang):
   XX=             -0.8463   YY=              2.9696   ZZ=             -2.1233
   XY=             -2.9593   XZ=             -0.0000   YZ=             -0.0000
 Octapole moment (field-independent basis, Debye-Ang**2):
  XXX=             -1.1721  YYY=              7.1562  ZZZ=              0.0000  XYY=             -4.7523
  XXY=              2.6051  XXZ=              0.0000  XZZ=             -0.1893  YZZ=              0.5716
  YYZ=              0.0000  XYZ=             -0.0000
 Hexadecapole moment (field-independent basis, Debye-Ang**3):
 XXXX=            -17.1965 YYYY=            -75.0219 ZZZZ=            -16.6754 XXXY=              0.2746
 XXXZ=             -0.0000 YYYX=             -7.8352 YYYZ=             -0.0000 ZZZX=             -0.0000
 ZZZY=             -0.0000 XXYY=            -16.7812 XXZZ=             -5.7432 YYZZ=            -20.3045
 XXYZ=             -0.0000 YYXZ=             -0.0000 ZZXY=              0.5055
 N-N= 4.688061087259D+01 E-N=-1.366660748390D+03  KE= 5.341697296473D+02
 Symmetry A'   KE= 4.834450869249D+02
 Symmetry A"   KE= 5.072464272237D+01
  Exact polarizability:   0.000   0.000   0.000   0.000   0.000   0.000
 Approx polarizability:  12.588  -2.847  49.106   0.000   0.000   9.954
 Calling FoFJK, ICntrl=    100147 FMM=F ISym2X=1 I1Cent= 0 IOpClX= 0 NMat=1 NMatS=1 NMatT=0.
 ***** Axes restored to original set *****
 -------------------------------------------------------------------
 Center     Atomic                   Forces (Hartrees/Bohr)
 Number     Number              X              Y              Z
 -------------------------------------------------------------------
      1       17          -0.024706936   -0.039802426    0.024371572
      2        8          -0.017139947    0.050987565   -0.030794434
      3        1           0.041846883   -0.011185139    0.006422862
 -------------------------------------------------------------------
 Cartesian Forces:  Max     0.050987565 RMS     0.030818408
 FormGI is forming the generalized inverse of G from B-inverse, IUseBI=4.

 GradGradGradGradGradGradGradGradGradGradGradGradGradGradGradGradGradGrad
 Berny optimization.
 Internal  Forces:  Max     0.077649864 RMS     0.052997533
 Search for a saddle point.
 Step number   1 out of a maximum of  100
 All quantities printed in internal units (Hartrees-Bohrs-Radians)
 Swapping is turned off.
 Second derivative matrix not updated -- analytic derivatives used.
 The second derivative matrix:
                          R1        R2        A1
           R1           0.07845
           R2          -0.01316   0.53315
           A1           0.00595   0.00298   0.10279
 ITU=  0
     Eigenvalues ---    0.07667   0.10417   0.53355
 Eigenvectors required to have negative eigenvalues:
                          R1        A1        R2
   1                   -0.97383   0.22533  -0.02954
 RFO step:  Lambda0=8.630288365D-02 Lambda=-4.89976753D-02.
 Linear search not attempted -- option 19 set.
 Maximum step size (   0.300) exceeded in Quadratic search.
    -- Step size scaled by   0.376
 Iteration  1 RMS(Cart)=  0.12032123 RMS(Int)=  0.03659689
 Iteration  2 RMS(Cart)=  0.04548179 RMS(Int)=  0.00120812
 Iteration  3 RMS(Cart)=  0.00088463 RMS(Int)=  0.00000016
 Iteration  4 RMS(Cart)=  0.00000021 RMS(Int)=  0.00000000
 ClnCor:  largest displacement from symmetrization is 1.89D-15 for atom     3.
 Variable       Old X    -DE/DX   Delta X   Delta X   Delta X     New X
                                 (Linear)    (Quad)   (Total)
    R1        3.48634  -0.04788   0.00000   0.15858   0.15858   3.64492
    R2        1.82347   0.01020   0.00000   0.01338   0.01338   1.83684
    A1        2.28300  -0.07765   0.00000  -0.25431  -0.25431   2.02869
         Item               Value     Threshold  Converged?
 Maximum Force            0.077650     0.000450     NO 
 RMS     Force            0.052998     0.000300     NO 
 Maximum Displacement     0.202913     0.001800     NO 
 RMS     Displacement     0.154214     0.001200     NO 
 Predicted change in Energy=-8.210571D-03
 GradGradGradGradGradGradGradGradGradGradGradGradGradGradGradGradGradGrad

                          Input orientation:                          
 ---------------------------------------------------------------------
 Center     Atomic      Atomic             Coordinates (Angstroms)
 Number     Number       Type             X           Y           Z
 ---------------------------------------------------------------------
      1         17           0       -1.953089    4.387061   -1.447689
      2          8           0       -3.558866    3.479858   -0.883093
      3          1           0       -3.433621    2.655342   -0.383793
 ---------------------------------------------------------------------
                    Distance matrix (angstroms):
                    1          2          3
     1  Cl   0.000000
     2  O    1.928809   0.000000
     3  H    2.514498   0.972016   0.000000
 Stoichiometry    ClHO
 Framework group  CS[SG(ClHO)]
 Deg. of freedom     3
 Full point group                 CS      NOp   2
 Largest Abelian subgroup         CS      NOp   2
 Largest concise Abelian subgroup C1      NOp   1
                         Standard orientation:                         
 ---------------------------------------------------------------------
 Center     Atomic      Atomic             Coordinates (Angstroms)
 Number     Number       Type             X           Y           Z
 ---------------------------------------------------------------------
      1         17           0        0.033534   -0.684191    0.000000
      2          8           0        0.033534    1.244617   -0.000000
      3          1           0       -0.838349    1.674308   -0.000000
 ---------------------------------------------------------------------
 Rotational constants (GHZ):         723.6131330          11.5066976          11.3265854
 Standard basis: SVP (5D, 7F)
 There are    29 symmetry adapted cartesian basis functions of A'  symmetry.
 There are    10 symmetry adapted cartesian basis functions of A"  symmetry.
 There are    27 symmetry adapted basis functions of A'  symmetry.
 There are    10 symmetry adapted basis functions of A"  symmetry.
    37 basis functions,    69 primitive gaussians,    39 cartesian basis functions
    13 alpha electrons       13 beta electrons
       nuclear repulsion energy        45.2451623088 Hartrees.
 NAtoms=    3 NActive=    3 NUniq=    3 SFac= 1.00D+00 NAtFMM=   60 NAOKFM=F Big=F
 Integral buffers will be    131072 words long.
 Raffenetti 2 integral format.
 Two-electron integral symmetry is turned on.
 Nuclear repulsion after empirical dispersion term =       45.2435918323 Hartrees.
 One-electron integrals computed using PRISM.
 NBasis=    37 RedAO= T EigKep=  4.82D-02  NBF=    27    10
 NBsUse=    37 1.00D-06 EigRej= -1.00D+00 NBFU=    27    10
 Initial guess from the checkpoint file:  "/tmp/Gau-30977.chk"
 B after Tr=     0.000000   -0.000000    0.000000
         Rot=    0.999970    0.000000   -0.000000   -0.007728 Ang=  -0.89 deg.
 Initial guess orbital symmetries:
       Occupied  (A') (A') (A') (A') (A') (A") (A') (A') (A') (A')
                 (A") (A') (A")
       Virtual   (A') (A') (A') (A') (A') (A") (A') (A') (A") (A")
                 (A') (A') (A") (A') (A') (A') (A") (A') (A') (A")
                 (A') (A") (A') (A')
 ExpMin= 1.22D-01 ExpMax= 1.04D+04 ExpMxC= 1.57D+03 IAcc=2 IRadAn=         4 AccDes= 0.00D+00
 Harris functional with IExCor=  402 and IRadAn=       4 diagonalized for initial guess.
 HarFok:  IExCor=  402 AccDes= 0.00D+00 IRadAn=         4 IDoV= 1 UseB2=F ITyADJ=14
 ICtDFT=  3500011 ScaDFX=  1.000000  1.000000  1.000000  1.000000
 FoFCou: FMM=F IPFlag=           0 FMFlag=      100000 FMFlg1=           0
         NFxFlg=           0 DoJE=T BraDBF=F KetDBF=T FulRan=T
         wScrn=  0.000000 ICntrl=       500 IOpCl=  0 I1Cent=   200000004 NGrid=           0
         NMat0=    1 NMatS0=      1 NMatT0=    0 NMatD0=    1 NMtDS0=    0 NMtDT0=    0
 Petite list used in FoFCou.
 Keep R1 ints in memory in symmetry-blocked form, NReq=7153137.
 Requested convergence on RMS density matrix=1.00D-08 within 128 cycles.
 Requested convergence on MAX density matrix=1.00D-06.
 Requested convergence on             energy=1.00D-06.
 No special actions if energy rises.
 Integral accuracy reduced to 1.0D-05 until final iterations.
 Initial convergence to 1.0D-05 achieved.  Increase integral accuracy.
 SCF Done:  E(RB3LYP) =  -535.739642480     A.U. after   13 cycles
            NFock= 13  Conv=0.31D-08     -V/T= 2.0030
 Calling FoFJK, ICntrl=      2127 FMM=F ISym2X=1 I1Cent= 0 IOpClX= 0 NMat=1 NMatS=1 NMatT=0.
 ***** Axes restored to original set *****
 -------------------------------------------------------------------
 Center     Atomic                   Forces (Hartrees/Bohr)
 Number     Number              X              Y              Z
 -------------------------------------------------------------------
      1       17          -0.040440854   -0.036438489    0.022467380
      2        8           0.013784894    0.037653777   -0.022972216
      3        1           0.026655960   -0.001215288    0.000504836
 -------------------------------------------------------------------
 Cartesian Forces:  Max     0.040440854 RMS     0.026490741

 GradGradGradGradGradGradGradGradGradGradGradGradGradGradGradGradGradGrad
 Berny optimization.
 FormGI is forming the generalized inverse of G from B-inverse, IUseBI=4.
 Internal  Forces:  Max     0.057382925 RMS     0.043370080
 Search for a saddle point.
 Step number   2 out of a maximum of  100
 All quantities printed in internal units (Hartrees-Bohrs-Radians)
 Swapping is turned off.
 Update second derivatives using D2CorX and points    1    2
 The second derivative matrix:
                          R1        R2        A1
           R1           0.07506
           R2          -0.01290   0.53402
           A1           0.00877  -0.00151   0.12101
 ITU=  0  0
     Eigenvalues ---    0.07311   0.12259   0.53439
 Eigenvectors required to have negative eigenvalues:
                          R1        A1        R2
   1                   -0.98345   0.17916  -0.02694
 RFO step:  Lambda0=9.662414674D-02 Lambda=-2.29469987D-02.
 Linear search not attempted -- option 19 set.
 Maximum step size (   0.300) exceeded in Quadratic search.
    -- Step size scaled by   0.535
 Iteration  1 RMS(Cart)=  0.12573701 RMS(Int)=  0.03262841
 Iteration  2 RMS(Cart)=  0.04295505 RMS(Int)=  0.00102620
 Iteration  3 RMS(Cart)=  0.00072042 RMS(Int)=  0.00000015
 Iteration  4 RMS(Cart)=  0.00000020 RMS(Int)=  0.00000000
 ClnCor:  largest displacement from symmetrization is 5.29D-15 for atom     3.
 Variable       Old X    -DE/DX   Delta X   Delta X   Delta X     New X
                                 (Linear)    (Quad)   (Total)
    R1        3.64492  -0.05738   0.00000   0.17050   0.17050   3.81542
    R2        1.83684   0.00472   0.00000   0.01004   0.01004   1.84688
    A1        2.02869  -0.04825   0.00000  -0.24664  -0.24664   1.78205
         Item               Value     Threshold  Converged?
 Maximum Force            0.057383     0.000450     NO 
 RMS     Force            0.043370     0.000300     NO 
 Maximum Displacement     0.199394     0.001800     NO 
 RMS     Displacement     0.158551     0.001200     NO 
 Predicted change in Energy= 2.248016D-03
 GradGradGradGradGradGradGradGradGradGradGradGradGradGradGradGradGradGrad

                          Input orientation:                          
 ---------------------------------------------------------------------
 Center     Atomic      Atomic             Coordinates (Angstroms)
 Number     Number       Type             X           Y           Z
 ---------------------------------------------------------------------
      1         17           0       -1.929403    4.355691   -1.428857
      2          8           0       -3.664380    3.479695   -0.882073
      3          1           0       -3.351792    2.686876   -0.403644
 ---------------------------------------------------------------------
                    Distance matrix (angstroms):
                    1          2          3
     1  Cl   0.000000
     2  O    2.019031   0.000000
     3  H    2.420578   0.977327   0.000000
 Stoichiometry    ClHO
 Framework group  CS[SG(ClHO)]
 Deg. of freedom     3
 Full point group                 CS      NOp   2
 Largest Abelian subgroup         CS      NOp   2
 Largest concise Abelian subgroup C1      NOp   1
                         Standard orientation:                         
 ---------------------------------------------------------------------
 Center     Atomic      Atomic             Coordinates (Angstroms)
 Number     Number       Type             X           Y           Z
 ---------------------------------------------------------------------
      1         17           0        0.036754   -0.706778    0.000000
      2          8           0        0.036754    1.312254    0.000000
      3          1           0       -0.918845    1.517189    0.000000
 ---------------------------------------------------------------------
 Rotational constants (GHZ):         591.8898144          10.6874363          10.4978817
 Standard basis: SVP (5D, 7F)
 There are    29 symmetry adapted cartesian basis functions of A'  symmetry.
 There are    10 symmetry adapted cartesian basis functions of A"  symmetry.
 There are    27 symmetry adapted basis functions of A'  symmetry.
 There are    10 symmetry adapted basis functions of A"  symmetry.
    37 basis functions,    69 primitive gaussians,    39 cartesian basis functions
    13 alpha electrons       13 beta electrons
       nuclear repulsion energy        43.6929655962 Hartrees.
 NAtoms=    3 NActive=    3 NUniq=    3 SFac= 1.00D+00 NAtFMM=   60 NAOKFM=F Big=F
 Integral buffers will be    131072 words long.
 Raffenetti 2 integral format.
 Two-electron integral symmetry is turned on.
 Nuclear repulsion after empirical dispersion term =       43.6913763619 Hartrees.
 One-electron integrals computed using PRISM.
 NBasis=    37 RedAO= T EigKep=  4.88D-02  NBF=    27    10
 NBsUse=    37 1.00D-06 EigRej= -1.00D+00 NBFU=    27    10
 Initial guess from the checkpoint file:  "/tmp/Gau-30977.chk"
 B after Tr=    -0.000000    0.000000   -0.000000
         Rot=    0.999984    0.000000   -0.000000   -0.005627 Ang=  -0.64 deg.
 Initial guess orbital symmetries:
       Occupied  (A') (A') (A') (A') (A') (A") (A') (A') (A') (A')
                 (A") (A') (A")
       Virtual   (A') (A') (A') (A') (A') (A") (A') (A') (A") (A')
                 (A") (A') (A") (A') (A') (A') (A") (A') (A') (A")
                 (A') (A') (A") (A')
 ExpMin= 1.22D-01 ExpMax= 1.04D+04 ExpMxC= 1.57D+03 IAcc=2 IRadAn=         4 AccDes= 0.00D+00
 Harris functional with IExCor=  402 and IRadAn=       4 diagonalized for initial guess.
 HarFok:  IExCor=  402 AccDes= 0.00D+00 IRadAn=         4 IDoV= 1 UseB2=F ITyADJ=14
 ICtDFT=  3500011 ScaDFX=  1.000000  1.000000  1.000000  1.000000
 FoFCou: FMM=F IPFlag=           0 FMFlag=      100000 FMFlg1=           0
         NFxFlg=           0 DoJE=T BraDBF=F KetDBF=T FulRan=T
         wScrn=  0.000000 ICntrl=       500 IOpCl=  0 I1Cent=   200000004 NGrid=           0
         NMat0=    1 NMatS0=      1 NMatT0=    0 NMatD0=    1 NMtDS0=    0 NMtDT0=    0
 Petite list used in FoFCou.
 Keep R1 ints in memory in symmetry-blocked form, NReq=7153137.
 Requested convergence on RMS density matrix=1.00D-08 within 128 cycles.
 Requested convergence on MAX density matrix=1.00D-06.
 Requested convergence on             energy=1.00D-06.
 No special actions if energy rises.
 Integral accuracy reduced to 1.0D-05 until final iterations.
 Initial convergence to 1.0D-05 achieved.  Increase integral accuracy.
 SCF Done:  E(RB3LYP) =  -535.737409346     A.U. after   14 cycles
            NFock= 14  Conv=0.26D-08     -V/T= 2.0031
 Calling FoFJK, ICntrl=      2127 FMM=F ISym2X=1 I1Cent= 0 IOpClX= 0 NMat=1 NMatS=1 NMatT=0.
 ***** Axes restored to original set *****
 -------------------------------------------------------------------
 Center     Atomic                   Forces (Hartrees/Bohr)
 Number     Number              X              Y              Z
 -------------------------------------------------------------------
      1       17          -0.051642215   -0.030589523    0.019015466
      2        8           0.042727693    0.028144376   -0.017453693
      3        1           0.008914522    0.002445147   -0.001561773
 -------------------------------------------------------------------
 Cartesian Forces:  Max     0.051642215 RMS     0.027837834

 GradGradGradGradGradGradGradGradGradGradGradGradGradGradGradGradGradGrad
 Berny optimization.
 FormGI is forming the generalized inverse of G from B-inverse, IUseBI=4.
 Internal  Forces:  Max     0.062798477 RMS     0.037609533
 Search for a saddle point.
 Step number   3 out of a maximum of  100
 All quantities printed in internal units (Hartrees-Bohrs-Radians)
 Swapping is turned off.
 Update second derivatives using D2CorX and points    1    2    3
 The second derivative matrix:
                          R1        R2        A1
           R1           0.05557
           R2          -0.01112   0.53421
           A1           0.01600  -0.00468   0.13629
 ITU=  0  0  0
     Eigenvalues ---    0.05230   0.13924   0.53453
 Eigenvectors required to have negative eigenvalues:
                          R1        A1        R2
   1                   -0.98233   0.18602  -0.02087
 RFO step:  Lambda0=9.019905944D-02 Lambda=-5.67785855D-03.
 Linear search not attempted -- option 19 set.
 Iteration  1 RMS(Cart)=  0.13212072 RMS(Int)=  0.02498968
 Iteration  2 RMS(Cart)=  0.03280499 RMS(Int)=  0.00059667
 Iteration  3 RMS(Cart)=  0.00044703 RMS(Int)=  0.00000008
 Iteration  4 RMS(Cart)=  0.00000012 RMS(Int)=  0.00000000
 ClnCor:  largest displacement from symmetrization is 2.22D-15 for atom     1.
 Variable       Old X    -DE/DX   Delta X   Delta X   Delta X     New X
                                 (Linear)    (Quad)   (Total)
    R1        3.81542  -0.06280   0.00000   0.15755   0.15755   3.97297
    R2        1.84688   0.00010   0.00000   0.00413   0.00413   1.85101
    A1        1.78205  -0.01731   0.00000  -0.23122  -0.23122   1.55084
         Item               Value     Threshold  Converged?
 Maximum Force            0.062798     0.000450     NO 
 RMS     Force            0.037610     0.000300     NO 
 Maximum Displacement     0.179063     0.001800     NO 
 RMS     Displacement     0.158071     0.001200     NO 
 Predicted change in Energy= 9.642053D-03
 GradGradGradGradGradGradGradGradGradGradGradGradGradGradGradGradGradGrad

                          Input orientation:                          
 ---------------------------------------------------------------------
 Center     Atomic      Atomic             Coordinates (Angstroms)
 Number     Number       Type             X           Y           Z
 ---------------------------------------------------------------------
      1         17           0       -1.912880    4.318810   -1.406619
      2          8           0       -3.759136    3.466280   -0.873104
      3          1           0       -3.273560    2.737171   -0.434852
 ---------------------------------------------------------------------
                    Distance matrix (angstroms):
                    1          2          3
     1  Cl   0.000000
     2  O    2.102405   0.000000
     3  H    2.301600   0.979515   0.000000
 Stoichiometry    ClHO
 Framework group  CS[SG(ClHO)]
 Deg. of freedom     3
 Full point group                 CS      NOp   2
 Largest Abelian subgroup         CS      NOp   2
 Largest concise Abelian subgroup C1      NOp   1
                         Standard orientation:                         
 ---------------------------------------------------------------------
 Center     Atomic      Atomic             Coordinates (Angstroms)
 Number     Number       Type             X           Y           Z
 ---------------------------------------------------------------------
      1         17           0        0.037666   -0.727004   -0.000000
      2          8           0        0.037666    1.375401    0.000000
      3          1           0       -0.941654    1.355854    0.000000
 ---------------------------------------------------------------------
 Rotational constants (GHZ):         555.6136249           9.9976328           9.8209167
 Standard basis: SVP (5D, 7F)
 There are    29 symmetry adapted cartesian basis functions of A'  symmetry.
 There are    10 symmetry adapted cartesian basis functions of A"  symmetry.
 There are    27 symmetry adapted basis functions of A'  symmetry.
 There are    10 symmetry adapted basis functions of A"  symmetry.
    37 basis functions,    69 primitive gaussians,    39 cartesian basis functions
    13 alpha electrons       13 beta electrons
       nuclear repulsion energy        42.4618641254 Hartrees.
 NAtoms=    3 NActive=    3 NUniq=    3 SFac= 1.00D+00 NAtFMM=   60 NAOKFM=F Big=F
 Integral buffers will be    131072 words long.
 Raffenetti 2 integral format.
 Two-electron integral symmetry is turned on.
 Nuclear repulsion after empirical dispersion term =       42.4602405716 Hartrees.
 One-electron integrals computed using PRISM.
 NBasis=    37 RedAO= T EigKep=  4.99D-02  NBF=    27    10
 NBsUse=    37 1.00D-06 EigRej= -1.00D+00 NBFU=    27    10
 Initial guess from the checkpoint file:  "/tmp/Gau-30977.chk"
 B after Tr=     0.000000   -0.000000   -0.000000
         Rot=    0.999993   -0.000000    0.000000   -0.003639 Ang=  -0.42 deg.
 Initial guess orbital symmetries:
       Occupied  (A') (A') (A') (A') (A') (A") (A') (A') (A') (A')
                 (A") (A') (A")
       Virtual   (A') (A') (A') (A') (A') (A") (A') (A') (A") (A')
                 (A") (A') (A') (A") (A') (A') (A") (A') (A') (A")
                 (A') (A') (A") (A')
 ExpMin= 1.22D-01 ExpMax= 1.04D+04 ExpMxC= 1.57D+03 IAcc=2 IRadAn=         4 AccDes= 0.00D+00
 Harris functional with IExCor=  402 and IRadAn=       4 diagonalized for initial guess.
 HarFok:  IExCor=  402 AccDes= 0.00D+00 IRadAn=         4 IDoV= 1 UseB2=F ITyADJ=14
 ICtDFT=  3500011 ScaDFX=  1.000000  1.000000  1.000000  1.000000
 FoFCou: FMM=F IPFlag=           0 FMFlag=      100000 FMFlg1=           0
         NFxFlg=           0 DoJE=T BraDBF=F KetDBF=T FulRan=T
         wScrn=  0.000000 ICntrl=       500 IOpCl=  0 I1Cent=   200000004 NGrid=           0
         NMat0=    1 NMatS0=      1 NMatT0=    0 NMatD0=    1 NMtDS0=    0 NMtDT0=    0
 Petite list used in FoFCou.
 Keep R1 ints in memory in symmetry-blocked form, NReq=7153137.
 Requested convergence on RMS density matrix=1.00D-08 within 128 cycles.
 Requested convergence on MAX density matrix=1.00D-06.
 Requested convergence on             energy=1.00D-06.
 No special actions if energy rises.
 Integral accuracy reduced to 1.0D-05 until final iterations.
 Initial convergence to 1.0D-05 achieved.  Increase integral accuracy.
 SCF Done:  E(RB3LYP) =  -535.728287569     A.U. after   13 cycles
            NFock= 13  Conv=0.90D-08     -V/T= 2.0032
 Calling FoFJK, ICntrl=      2127 FMM=F ISym2X=1 I1Cent= 0 IOpClX= 0 NMat=1 NMatS=1 NMatT=0.
 ***** Axes restored to original set *****
 -------------------------------------------------------------------
 Center     Atomic                   Forces (Hartrees/Bohr)
 Number     Number              X              Y              Z
 -------------------------------------------------------------------
      1       17          -0.056009525   -0.023469955    0.014732768
      2        8           0.061296736    0.024631620   -0.015483935
      3        1          -0.005287212   -0.001161665    0.000751167
 -------------------------------------------------------------------
 Cartesian Forces:  Max     0.061296736 RMS     0.030801492

 GradGradGradGradGradGradGradGradGradGradGradGradGradGradGradGradGradGrad
 Berny optimization.
 FormGI is forming the generalized inverse of G from B-inverse, IUseBI=4.
 Internal  Forces:  Max     0.062441388 RMS     0.036498233
 Search for a saddle point.
 Step number   4 out of a maximum of  100
 All quantities printed in internal units (Hartrees-Bohrs-Radians)
 Swapping is turned off.
 Update second derivatives using D2CorX and points    2    3    4
 The second derivative matrix:
                          R1        R2        A1
           R1           0.03530
           R2          -0.01124   0.53421
           A1           0.02540  -0.00470   0.13435
 ITU=  0  0  0  0
     Eigenvalues ---    0.02898   0.14035   0.53453
 Eigenvectors required to have negative eigenvalues:
                          R1        A1        R2
   1                   -0.97217   0.23346  -0.01946
 RFO step:  Lambda0=7.914535042D-02 Lambda=-1.83989925D-04.
 Linear search not attempted -- option 19 set.
 Iteration  1 RMS(Cart)=  0.03091759 RMS(Int)=  0.00074349
 Iteration  2 RMS(Cart)=  0.00055924 RMS(Int)=  0.00000008
 Iteration  3 RMS(Cart)=  0.00000010 RMS(Int)=  0.00000000
 ClnCor:  largest displacement from symmetrization is 2.67D-15 for atom     2.
 Variable       Old X    -DE/DX   Delta X   Delta X   Delta X     New X
                                 (Linear)    (Quad)   (Total)
    R1        3.97297  -0.06244   0.00000   0.02674   0.02674   3.99971
    R2        1.85101  -0.00142   0.00000  -0.00014  -0.00014   1.85087
    A1        1.55084   0.00977   0.00000  -0.04362  -0.04362   1.50722
         Item               Value     Threshold  Converged?
 Maximum Force            0.062441     0.000450     NO 
 RMS     Force            0.036498     0.000300     NO 
 Maximum Displacement     0.031567     0.001800     NO 
 RMS     Displacement     0.031083     0.001200     NO 
 Predicted change in Energy= 2.206698D-03
 GradGradGradGradGradGradGradGradGradGradGradGradGradGradGradGradGradGrad

                          Input orientation:                          
 ---------------------------------------------------------------------
 Center     Atomic      Atomic             Coordinates (Angstroms)
 Number     Number       Type             X           Y           Z
 ---------------------------------------------------------------------
      1         17           0       -1.910921    4.310722   -1.401727
      2          8           0       -3.775841    3.462336   -0.870565
      3          1           0       -3.258814    2.749204   -0.442283
 ---------------------------------------------------------------------
                    Distance matrix (angstroms):
                    1          2          3
     1  Cl   0.000000
     2  O    2.116558   0.000000
     3  H    2.275013   0.979438   0.000000
 Stoichiometry    ClHO
 Framework group  CS[SG(ClHO)]
 Deg. of freedom     3
 Full point group                 CS      NOp   2
 Largest Abelian subgroup         CS      NOp   2
 Largest concise Abelian subgroup C1      NOp   1
                         Standard orientation:                         
 ---------------------------------------------------------------------
 Center     Atomic      Atomic             Coordinates (Angstroms)
 Number     Number       Type             X           Y           Z
 ---------------------------------------------------------------------
      1         17           0        0.037595   -0.730261   -0.000000
      2          8           0        0.037595    1.386296    0.000000
      3          1           0       -0.939865    1.324066    0.000000
 ---------------------------------------------------------------------
 Rotational constants (GHZ):         556.4079771           9.8878330           9.7151861
 Standard basis: SVP (5D, 7F)
 There are    29 symmetry adapted cartesian basis functions of A'  symmetry.
 There are    10 symmetry adapted cartesian basis functions of A"  symmetry.
 There are    27 symmetry adapted basis functions of A'  symmetry.
 There are    10 symmetry adapted basis functions of A"  symmetry.
    37 basis functions,    69 primitive gaussians,    39 cartesian basis functions
    13 alpha electrons       13 beta electrons
       nuclear repulsion energy        42.2789903363 Hartrees.
 NAtoms=    3 NActive=    3 NUniq=    3 SFac= 1.00D+00 NAtFMM=   60 NAOKFM=F Big=F
 Integral buffers will be    131072 words long.
 Raffenetti 2 integral format.
 Two-electron integral symmetry is turned on.
 Nuclear repulsion after empirical dispersion term =       42.2773586792 Hartrees.
 One-electron integrals computed using PRISM.
 NBasis=    37 RedAO= T EigKep=  5.01D-02  NBF=    27    10
 NBsUse=    37 1.00D-06 EigRej= -1.00D+00 NBFU=    27    10
 Initial guess from the checkpoint file:  "/tmp/Gau-30977.chk"
 B after Tr=     0.000000   -0.000000    0.000000
         Rot=    1.000000    0.000000   -0.000000   -0.000530 Ang=  -0.06 deg.
 Initial guess orbital symmetries:
       Occupied  (A') (A') (A') (A') (A') (A") (A') (A') (A') (A')
                 (A") (A') (A")
       Virtual   (A') (A') (A') (A') (A') (A") (A') (A') (A") (A')
                 (A") (A') (A') (A") (A') (A') (A") (A') (A') (A")
                 (A') (A') (A") (A')
 ExpMin= 1.22D-01 ExpMax= 1.04D+04 ExpMxC= 1.57D+03 IAcc=2 IRadAn=         4 AccDes= 0.00D+00
 Harris functional with IExCor=  402 and IRadAn=       4 diagonalized for initial guess.
 HarFok:  IExCor=  402 AccDes= 0.00D+00 IRadAn=         4 IDoV= 1 UseB2=F ITyADJ=14
 ICtDFT=  3500011 ScaDFX=  1.000000  1.000000  1.000000  1.000000
 FoFCou: FMM=F IPFlag=           0 FMFlag=      100000 FMFlg1=           0
         NFxFlg=           0 DoJE=T BraDBF=F KetDBF=T FulRan=T
         wScrn=  0.000000 ICntrl=       500 IOpCl=  0 I1Cent=   200000004 NGrid=           0
         NMat0=    1 NMatS0=      1 NMatT0=    0 NMatD0=    1 NMtDS0=    0 NMtDT0=    0
 Petite list used in FoFCou.
 Keep R1 ints in memory in symmetry-blocked form, NReq=7153137.
 Requested convergence on RMS density matrix=1.00D-08 within 128 cycles.
 Requested convergence on MAX density matrix=1.00D-06.
 Requested convergence on             energy=1.00D-06.
 No special actions if energy rises.
 Integral accuracy reduced to 1.0D-05 until final iterations.
 Initial convergence to 1.0D-05 achieved.  Increase integral accuracy.
 SCF Done:  E(RB3LYP) =  -535.726094934     A.U. after   12 cycles
            NFock= 12  Conv=0.38D-08     -V/T= 2.0032
 Calling FoFJK, ICntrl=      2127 FMM=F ISym2X=1 I1Cent= 0 IOpClX= 0 NMat=1 NMatS=1 NMatT=0.
 ***** Axes restored to original set *****
 -------------------------------------------------------------------
 Center     Atomic                   Forces (Hartrees/Bohr)
 Number     Number              X              Y              Z
 -------------------------------------------------------------------
      1       17          -0.056145634   -0.022004399    0.013844518
      2        8           0.063465160    0.024667152   -0.015524430
      3        1          -0.007319526   -0.002662753    0.001679912
 -------------------------------------------------------------------
 Cartesian Forces:  Max     0.063465160 RMS     0.031214290

 GradGradGradGradGradGradGradGradGradGradGradGradGradGradGradGradGradGrad
 Berny optimization.
 FormGI is forming the generalized inverse of G from B-inverse, IUseBI=4.
 Internal  Forces:  Max     0.061764887 RMS     0.036646770
 Search for a saddle point.
 Step number   5 out of a maximum of  100
 All quantities printed in internal units (Hartrees-Bohrs-Radians)
 Swapping is turned off.
 Update second derivatives using D2CorX and points    3    4    5
 The second derivative matrix:
                          R1        R2        A1
           R1           0.02664
           R2          -0.01216   0.53412
           A1           0.03188  -0.00396   0.12991
 ITU=  0  0  0  0
     Eigenvalues ---    0.01737   0.13883   0.53447
 Eigenvectors required to have negative eigenvalues:
                          R1        A1        R2
   1                   -0.96213   0.27183  -0.02055
 RFO step:  Lambda0=7.269183196D-02 Lambda=-5.47993189D-05.
 Linear search not attempted -- option 19 set.
 Iteration  1 RMS(Cart)=  0.01759125 RMS(Int)=  0.00023642
 Iteration  2 RMS(Cart)=  0.00017757 RMS(Int)=  0.00000001
 Iteration  3 RMS(Cart)=  0.00000001 RMS(Int)=  0.00000000
 ClnCor:  largest displacement from symmetrization is 2.90D-15 for atom     3.
 Variable       Old X    -DE/DX   Delta X   Delta X   Delta X     New X
                                 (Linear)    (Quad)   (Total)
    R1        3.99971  -0.06176   0.00000   0.01371   0.01371   4.01342
    R2        1.85087  -0.00119   0.00000   0.00035   0.00035   1.85122
    A1        1.50722   0.01458   0.00000  -0.02451  -0.02451   1.48271
         Item               Value     Threshold  Converged?
 Maximum Force            0.061765     0.000450     NO 
 RMS     Force            0.036647     0.000300     NO 
 Maximum Displacement     0.017225     0.001800     NO 
 RMS     Displacement     0.017645     0.001200     NO 
 Predicted change in Energy= 1.235222D-03
 GradGradGradGradGradGradGradGradGradGradGradGradGradGradGradGradGradGrad

                          Input orientation:                          
 ---------------------------------------------------------------------
 Center     Atomic      Atomic             Coordinates (Angstroms)
 Number     Number       Type             X           Y           Z
 ---------------------------------------------------------------------
      1         17           0       -1.910197    4.305886   -1.398799
      2          8           0       -3.784956    3.460121   -0.869141
      3          1           0       -3.250422    2.756254   -0.446635
 ---------------------------------------------------------------------
                    Distance matrix (angstroms):
                    1          2          3
     1  Cl   0.000000
     2  O    2.123811   0.000000
     3  H    2.259243   0.979626   0.000000
 Stoichiometry    ClHO
 Framework group  CS[SG(ClHO)]
 Deg. of freedom     3
 Full point group                 CS      NOp   2
 Largest Abelian subgroup         CS      NOp   2
 Largest concise Abelian subgroup C1      NOp   1
                         Standard orientation:                         
 ---------------------------------------------------------------------
 Center     Atomic      Atomic             Coordinates (Angstroms)
 Number     Number       Type             X           Y           Z
 ---------------------------------------------------------------------
      1         17           0        0.037532   -0.731851    0.000000
      2          8           0        0.037532    1.391960   -0.000000
      3          1           0       -0.938296    1.305780   -0.000000
 ---------------------------------------------------------------------
 Rotational constants (GHZ):         557.5499722           9.8330987           9.6626850
 Standard basis: SVP (5D, 7F)
 There are    29 symmetry adapted cartesian basis functions of A'  symmetry.
 There are    10 symmetry adapted cartesian basis functions of A"  symmetry.
 There are    27 symmetry adapted basis functions of A'  symmetry.
 There are    10 symmetry adapted basis functions of A"  symmetry.
    37 basis functions,    69 primitive gaussians,    39 cartesian basis functions
    13 alpha electrons       13 beta electrons
       nuclear repulsion energy        42.1896366185 Hartrees.
 NAtoms=    3 NActive=    3 NUniq=    3 SFac= 1.00D+00 NAtFMM=   60 NAOKFM=F Big=F
 Integral buffers will be    131072 words long.
 Raffenetti 2 integral format.
 Two-electron integral symmetry is turned on.
 Nuclear repulsion after empirical dispersion term =       42.1880004997 Hartrees.
 One-electron integrals computed using PRISM.
 NBasis=    37 RedAO= T EigKep=  5.02D-02  NBF=    27    10
 NBsUse=    37 1.00D-06 EigRej= -1.00D+00 NBFU=    27    10
 Initial guess from the checkpoint file:  "/tmp/Gau-30977.chk"
 B after Tr=    -0.000000    0.000000   -0.000000
         Rot=    1.000000   -0.000000    0.000000   -0.000289 Ang=  -0.03 deg.
 Initial guess orbital symmetries:
       Occupied  (A') (A') (A') (A') (A') (A") (A') (A') (A') (A')
                 (A") (A') (A")
       Virtual   (A') (A') (A') (A') (A') (A") (A') (A') (A") (A')
                 (A") (A') (A') (A") (A') (A') (A") (A') (A') (A")
                 (A') (A') (A") (A')
 Keep R1 ints in memory in symmetry-blocked form, NReq=7153137.
 Requested convergence on RMS density matrix=1.00D-08 within 128 cycles.
 Requested convergence on MAX density matrix=1.00D-06.
 Requested convergence on             energy=1.00D-06.
 No special actions if energy rises.
 SCF Done:  E(RB3LYP) =  -535.724860712     A.U. after   10 cycles
            NFock= 10  Conv=0.96D-09     -V/T= 2.0032
 Calling FoFJK, ICntrl=      2127 FMM=F ISym2X=1 I1Cent= 0 IOpClX= 0 NMat=1 NMatS=1 NMatT=0.
 ***** Axes restored to original set *****
 -------------------------------------------------------------------
 Center     Atomic                   Forces (Hartrees/Bohr)
 Number     Number              X              Y              Z
 -------------------------------------------------------------------
      1       17          -0.056120994   -0.021150152    0.013325865
      2        8           0.064629355    0.024562934   -0.015471345
      3        1          -0.008508361   -0.003412782    0.002145479
 -------------------------------------------------------------------
 Cartesian Forces:  Max     0.064629355 RMS     0.031416149

 GradGradGradGradGradGradGradGradGradGradGradGradGradGradGradGradGradGrad
 Berny optimization.
 FormGI is forming the generalized inverse of G from B-inverse, IUseBI=4.
 Internal  Forces:  Max     0.061285734 RMS     0.036768856
 Search for a saddle point.
 Step number   6 out of a maximum of  100
 All quantities printed in internal units (Hartrees-Bohrs-Radians)
 Swapping is turned off.
 Second derivative matrix not updated -- analytic derivatives used.
 The second derivative matrix:
                          R1        R2        A1
           R1           0.02664
           R2          -0.01216   0.53412
           A1           0.03188  -0.00396   0.12991
 ITU=  0  0  0  0
     Eigenvalues ---    0.01737   0.13883   0.53447
 Eigenvectors required to have negative eigenvalues:
                          R1        A1        R2
   1                   -0.96213   0.27183  -0.02055
 RFO step:  Lambda0=7.296089686D-02 Lambda=-1.56832303D-08.
 Linear search not attempted -- option 19 set.
 Iteration  1 RMS(Cart)=  0.00026017 RMS(Int)=  0.00000005
 Iteration  2 RMS(Cart)=  0.00000004 RMS(Int)=  0.00000000
 ClnCor:  largest displacement from symmetrization is 2.13D-15 for atom     3.
 Variable       Old X    -DE/DX   Delta X   Delta X   Delta X     New X
                                 (Linear)    (Quad)   (Total)
    R1        4.01342  -0.06129   0.00000   0.00021   0.00021   4.01363
    R2        1.85122  -0.00127   0.00000   0.00008   0.00008   1.85131
    A1        1.48271   0.01727   0.00000  -0.00037  -0.00037   1.48234
         Item               Value     Threshold  Converged?
 Maximum Force            0.061286     0.000450     NO 
 RMS     Force            0.036769     0.000300     NO 
 Maximum Displacement     0.000274     0.001800     YES
 RMS     Displacement     0.000260     0.001200     YES
 Predicted change in Energy= 1.948157D-05
 GradGradGradGradGradGradGradGradGradGradGradGradGradGradGradGradGradGrad

                          Input orientation:                          
 ---------------------------------------------------------------------
 Center     Atomic      Atomic             Coordinates (Angstroms)
 Number     Number       Type             X           Y           Z
 ---------------------------------------------------------------------
      1         17           0       -1.910185    4.305817   -1.398757
      2          8           0       -3.785101    3.460102   -0.869128
      3          1           0       -3.250290    2.756343   -0.446690
 ---------------------------------------------------------------------
                    Distance matrix (angstroms):
                    1          2          3
     1  Cl   0.000000
     2  O    2.123923   0.000000
     3  H    2.259022   0.979670   0.000000
 Stoichiometry    ClHO
 Framework group  CS[SG(ClHO)]
 Deg. of freedom     3
 Full point group                 CS      NOp   2
 Largest Abelian subgroup         CS      NOp   2
 Largest concise Abelian subgroup C1      NOp   1
                         Standard orientation:                         
 ---------------------------------------------------------------------
 Center     Atomic      Atomic             Coordinates (Angstroms)
 Number     Number       Type             X           Y           Z
 ---------------------------------------------------------------------
      1         17           0        0.037532   -0.731876    0.000000
      2          8           0        0.037532    1.392048   -0.000000
      3          1           0       -0.938307    1.305505   -0.000000
 ---------------------------------------------------------------------
 Rotational constants (GHZ):         557.5253458           9.8322477           9.6618558
 Standard basis: SVP (5D, 7F)
 There are    29 symmetry adapted cartesian basis functions of A'  symmetry.
 There are    10 symmetry adapted cartesian basis functions of A"  symmetry.
 There are    27 symmetry adapted basis functions of A'  symmetry.
 There are    10 symmetry adapted basis functions of A"  symmetry.
    37 basis functions,    69 primitive gaussians,    39 cartesian basis functions
    13 alpha electrons       13 beta electrons
       nuclear repulsion energy        42.1880378883 Hartrees.
 NAtoms=    3 NActive=    3 NUniq=    3 SFac= 1.00D+00 NAtFMM=   60 NAOKFM=F Big=F
 Integral buffers will be    131072 words long.
 Raffenetti 2 integral format.
 Two-electron integral symmetry is turned on.
 Nuclear repulsion after empirical dispersion term =       42.1864017000 Hartrees.
 One-electron integrals computed using PRISM.
 NBasis=    37 RedAO= T EigKep=  5.02D-02  NBF=    27    10
 NBsUse=    37 1.00D-06 EigRej= -1.00D+00 NBFU=    27    10
 Initial guess from the checkpoint file:  "/tmp/Gau-30977.chk"
 B after Tr=     0.000000   -0.000000   -0.000000
         Rot=    1.000000   -0.000000    0.000000   -0.000005 Ang=  -0.00 deg.
 Initial guess orbital symmetries:
       Occupied  (A') (A') (A') (A') (A') (A") (A') (A') (A') (A')
                 (A") (A') (A")
       Virtual   (A') (A') (A') (A') (A') (A") (A') (A') (A") (A')
                 (A") (A') (A') (A") (A') (A') (A") (A') (A') (A")
                 (A') (A') (A") (A')
 Keep R1 ints in memory in symmetry-blocked form, NReq=7153137.
 Requested convergence on RMS density matrix=1.00D-08 within 128 cycles.
 Requested convergence on MAX density matrix=1.00D-06.
 Requested convergence on             energy=1.00D-06.
 No special actions if energy rises.
 SCF Done:  E(RB3LYP) =  -535.724841231     A.U. after    7 cycles
            NFock=  7  Conv=0.31D-08     -V/T= 2.0032
 Calling FoFJK, ICntrl=      2127 FMM=F ISym2X=1 I1Cent= 0 IOpClX= 0 NMat=1 NMatS=1 NMatT=0.
 ***** Axes restored to original set *****
 -------------------------------------------------------------------
 Center     Atomic                   Forces (Hartrees/Bohr)
 Number     Number              X              Y              Z
 -------------------------------------------------------------------
      1       17          -0.056120137   -0.021136908    0.013317820
      2        8           0.064666293    0.024533504   -0.015453806
      3        1          -0.008546155   -0.003396596    0.002135986
 -------------------------------------------------------------------
 Cartesian Forces:  Max     0.064666293 RMS     0.031420413

 GradGradGradGradGradGradGradGradGradGradGradGradGradGradGradGradGradGrad
 Berny optimization.
 FormGI is forming the generalized inverse of G from B-inverse, IUseBI=4.
 Internal  Forces:  Max     0.061277950 RMS     0.036771215
 Search for a saddle point.
 Step number   7 out of a maximum of  100
 All quantities printed in internal units (Hartrees-Bohrs-Radians)
 Swapping is turned off.
 Update second derivatives using D2CorX and points    4    5    7
 The second derivative matrix:
                          R1        R2        A1
           R1           0.02518
           R2          -0.01328   0.53339
           A1           0.03343  -0.00264   0.12838
 ITU=  0  0  0  0
     Eigenvalues ---    0.01502   0.13816   0.53377
 Eigenvectors required to have negative eigenvalues:
                          R1        A1        R2
   1                   -0.95904   0.28231  -0.02314
 RFO step:  Lambda0=7.163538676D-02 Lambda=-3.55177873D-06.
 Linear search not attempted -- option 19 set.
 Iteration  1 RMS(Cart)=  0.00449419 RMS(Int)=  0.00001535
 Iteration  2 RMS(Cart)=  0.00001174 RMS(Int)=  0.00000000
 Iteration  3 RMS(Cart)=  0.00000000 RMS(Int)=  0.00000000
 ClnCor:  largest displacement from symmetrization is 2.89D-15 for atom     2.
 Variable       Old X    -DE/DX   Delta X   Delta X   Delta X     New X
                                 (Linear)    (Quad)   (Total)
    R1        4.01363  -0.06128   0.00000   0.00341   0.00341   4.01704
    R2        1.85131  -0.00130   0.00000   0.00037   0.00037   1.85168
    A1        1.48234   0.01731   0.00000  -0.00625  -0.00625   1.47609
         Item               Value     Threshold  Converged?
 Maximum Force            0.061278     0.000450     NO 
 RMS     Force            0.036771     0.000300     NO 
 Maximum Displacement     0.004395     0.001800     NO 
 RMS     Displacement     0.004498     0.001200     NO 
 Predicted change in Energy= 3.192610D-04
 GradGradGradGradGradGradGradGradGradGradGradGradGradGradGradGradGradGrad

                          Input orientation:                          
 ---------------------------------------------------------------------
 Center     Atomic      Atomic             Coordinates (Angstroms)
 Number     Number       Type             X           Y           Z
 ---------------------------------------------------------------------
      1         17           0       -1.910027    4.304569   -1.398000
      2          8           0       -3.787427    3.459577   -0.868789
      3          1           0       -3.248122    2.758116   -0.447785
 ---------------------------------------------------------------------
                    Distance matrix (angstroms):
                    1          2          3
     1  Cl   0.000000
     2  O    2.125725   0.000000
     3  H    2.254978   0.979867   0.000000
 Stoichiometry    ClHO
 Framework group  CS[SG(ClHO)]
 Deg. of freedom     3
 Full point group                 CS      NOp   2
 Largest Abelian subgroup         CS      NOp   2
 Largest concise Abelian subgroup C1      NOp   1
                         Standard orientation:                         
 ---------------------------------------------------------------------
 Center     Atomic      Atomic             Coordinates (Angstroms)
 Number     Number       Type             X           Y           Z
 ---------------------------------------------------------------------
      1         17           0        0.037518   -0.732264    0.000000
      2          8           0        0.037518    1.393461   -0.000000
      3          1           0       -0.937958    1.300805    0.000000
 ---------------------------------------------------------------------
 Rotational constants (GHZ):         557.7590086           9.8187744           9.6489152
 Standard basis: SVP (5D, 7F)
 There are    29 symmetry adapted cartesian basis functions of A'  symmetry.
 There are    10 symmetry adapted cartesian basis functions of A"  symmetry.
 There are    27 symmetry adapted basis functions of A'  symmetry.
 There are    10 symmetry adapted basis functions of A"  symmetry.
    37 basis functions,    69 primitive gaussians,    39 cartesian basis functions
    13 alpha electrons       13 beta electrons
       nuclear repulsion energy        42.1655855185 Hartrees.
 NAtoms=    3 NActive=    3 NUniq=    3 SFac= 1.00D+00 NAtFMM=   60 NAOKFM=F Big=F
 Integral buffers will be    131072 words long.
 Raffenetti 2 integral format.
 Two-electron integral symmetry is turned on.
 Nuclear repulsion after empirical dispersion term =       42.1639481971 Hartrees.
 One-electron integrals computed using PRISM.
 NBasis=    37 RedAO= T EigKep=  5.02D-02  NBF=    27    10
 NBsUse=    37 1.00D-06 EigRej= -1.00D+00 NBFU=    27    10
 Initial guess from the checkpoint file:  "/tmp/Gau-30977.chk"
 B after Tr=     0.000000    0.000000    0.000000
         Rot=    1.000000    0.000000   -0.000000   -0.000075 Ang=  -0.01 deg.
 Initial guess orbital symmetries:
       Occupied  (A') (A') (A') (A') (A') (A") (A') (A') (A') (A')
                 (A") (A') (A")
       Virtual   (A') (A') (A') (A') (A') (A") (A') (A') (A") (A')
                 (A") (A') (A') (A") (A') (A') (A") (A') (A') (A")
                 (A') (A') (A") (A')
 Keep R1 ints in memory in symmetry-blocked form, NReq=7153137.
 Requested convergence on RMS density matrix=1.00D-08 within 128 cycles.
 Requested convergence on MAX density matrix=1.00D-06.
 Requested convergence on             energy=1.00D-06.
 No special actions if energy rises.
 SCF Done:  E(RB3LYP) =  -535.724522005     A.U. after    8 cycles
            NFock=  8  Conv=0.82D-08     -V/T= 2.0032
 Calling FoFJK, ICntrl=      2127 FMM=F ISym2X=1 I1Cent= 0 IOpClX= 0 NMat=1 NMatS=1 NMatT=0.
 ***** Axes restored to original set *****
 -------------------------------------------------------------------
 Center     Atomic                   Forces (Hartrees/Bohr)
 Number     Number              X              Y              Z
 -------------------------------------------------------------------
      1       17          -0.056102817   -0.020915237    0.013183138
      2        8           0.065018992    0.024410343   -0.015382140
      3        1          -0.008916176   -0.003495106    0.002199002
 -------------------------------------------------------------------
 Cartesian Forces:  Max     0.065018992 RMS     0.031473556

 GradGradGradGradGradGradGradGradGradGradGradGradGradGradGradGradGradGrad
 Berny optimization.
 FormGI is forming the generalized inverse of G from B-inverse, IUseBI=4.
 Internal  Forces:  Max     0.061144830 RMS     0.036808349
 Search for a saddle point.
 Step number   8 out of a maximum of  100
 All quantities printed in internal units (Hartrees-Bohrs-Radians)
 Swapping is turned off.
 Update second derivatives using D2CorX and points    5    6    7    8
 The second derivative matrix:
                          R1        R2        A1
           R1           0.02482
           R2          -0.01426   0.53317
           A1           0.03398  -0.00087   0.12757
 ITU=  0  0  0  0
     Eigenvalues ---    0.01425   0.13773   0.53358
 Eigenvectors required to have negative eigenvalues:
                          R1        A1        R2
   1                   -0.95759   0.28696  -0.02583
 RFO step:  Lambda0=7.127416044D-02 Lambda=-7.84673607D-07.
 Linear search not attempted -- option 19 set.
 Iteration  1 RMS(Cart)=  0.00203910 RMS(Int)=  0.00000316
 Iteration  2 RMS(Cart)=  0.00000253 RMS(Int)=  0.00000000
 Iteration  3 RMS(Cart)=  0.00000000 RMS(Int)=  0.00000000
 ClnCor:  largest displacement from symmetrization is 3.58D-15 for atom     2.
 Variable       Old X    -DE/DX   Delta X   Delta X   Delta X     New X
                                 (Linear)    (Quad)   (Total)
    R1        4.01704  -0.06114   0.00000   0.00155   0.00155   4.01859
    R2        1.85168  -0.00146   0.00000   0.00039   0.00039   1.85207
    A1        1.47609   0.01799   0.00000  -0.00285  -0.00285   1.47324
         Item               Value     Threshold  Converged?
 Maximum Force            0.061145     0.000450     NO 
 RMS     Force            0.036808     0.000300     NO 
 Maximum Displacement     0.002043     0.001800     NO 
 RMS     Displacement     0.002040     0.001200     NO 
 Predicted change in Energy= 1.468657D-04
 GradGradGradGradGradGradGradGradGradGradGradGradGradGradGradGradGradGrad

                          Input orientation:                          
 ---------------------------------------------------------------------
 Center     Atomic      Atomic             Coordinates (Angstroms)
 Number     Number       Type             X           Y           Z
 ---------------------------------------------------------------------
      1         17           0       -1.909956    4.304003   -1.397658
      2          8           0       -3.788508    3.459377   -0.868659
      3          1           0       -3.247112    2.758881   -0.448258
 ---------------------------------------------------------------------
                    Distance matrix (angstroms):
                    1          2          3
     1  Cl   0.000000
     2  O    2.126544   0.000000
     3  H    2.253164   0.980072   0.000000
 Stoichiometry    ClHO
 Framework group  CS[SG(ClHO)]
 Deg. of freedom     3
 Full point group                 CS      NOp   2
 Largest Abelian subgroup         CS      NOp   2
 Largest concise Abelian subgroup C1      NOp   1
                         Standard orientation:                         
 ---------------------------------------------------------------------
 Center     Atomic      Atomic             Coordinates (Angstroms)
 Number     Number       Type             X           Y           Z
 ---------------------------------------------------------------------
      1         17           0        0.037516   -0.732440   -0.000000
      2          8           0        0.037516    1.394104    0.000000
      3          1           0       -0.937897    1.298648    0.000000
 ---------------------------------------------------------------------
 Rotational constants (GHZ):         557.7497632           9.8126681           9.6430155
 Standard basis: SVP (5D, 7F)
 There are    29 symmetry adapted cartesian basis functions of A'  symmetry.
 There are    10 symmetry adapted cartesian basis functions of A"  symmetry.
 There are    27 symmetry adapted basis functions of A'  symmetry.
 There are    10 symmetry adapted basis functions of A"  symmetry.
    37 basis functions,    69 primitive gaussians,    39 cartesian basis functions
    13 alpha electrons       13 beta electrons
       nuclear repulsion energy        42.1548599876 Hartrees.
 NAtoms=    3 NActive=    3 NUniq=    3 SFac= 1.00D+00 NAtFMM=   60 NAOKFM=F Big=F
 Integral buffers will be    131072 words long.
 Raffenetti 2 integral format.
 Two-electron integral symmetry is turned on.
 Nuclear repulsion after empirical dispersion term =       42.1532221465 Hartrees.
 One-electron integrals computed using PRISM.
 NBasis=    37 RedAO= T EigKep=  5.03D-02  NBF=    27    10
 NBsUse=    37 1.00D-06 EigRej= -1.00D+00 NBFU=    27    10
 Initial guess from the checkpoint file:  "/tmp/Gau-30977.chk"
 B after Tr=    -0.000000   -0.000000    0.000000
         Rot=    1.000000   -0.000000    0.000000   -0.000037 Ang=  -0.00 deg.
 Initial guess orbital symmetries:
       Occupied  (A') (A') (A') (A') (A') (A") (A') (A') (A') (A')
                 (A") (A') (A")
       Virtual   (A') (A') (A') (A') (A') (A") (A') (A') (A") (A')
                 (A") (A') (A') (A") (A') (A') (A") (A') (A') (A")
                 (A') (A') (A") (A')
 Keep R1 ints in memory in symmetry-blocked form, NReq=7153137.
 Requested convergence on RMS density matrix=1.00D-08 within 128 cycles.
 Requested convergence on MAX density matrix=1.00D-06.
 Requested convergence on             energy=1.00D-06.
 No special actions if energy rises.
 SCF Done:  E(RB3LYP) =  -535.724375143     A.U. after    8 cycles
            NFock=  8  Conv=0.39D-08     -V/T= 2.0032
 Calling FoFJK, ICntrl=      2127 FMM=F ISym2X=1 I1Cent= 0 IOpClX= 0 NMat=1 NMatS=1 NMatT=0.
 ***** Axes restored to original set *****
 -------------------------------------------------------------------
 Center     Atomic                   Forces (Hartrees/Bohr)
 Number     Number              X              Y              Z
 -------------------------------------------------------------------
      1       17          -0.056093177   -0.020812497    0.013120702
      2        8           0.065234824    0.024277158   -0.015303195
      3        1          -0.009141647   -0.003464661    0.002182493
 -------------------------------------------------------------------
 Cartesian Forces:  Max     0.065234824 RMS     0.031501754

 GradGradGradGradGradGradGradGradGradGradGradGradGradGradGradGradGradGrad
 Berny optimization.
 FormGI is forming the generalized inverse of G from B-inverse, IUseBI=4.
 Internal  Forces:  Max     0.061081890 RMS     0.036826921
 Search for a saddle point.
 Step number   9 out of a maximum of  100
 All quantities printed in internal units (Hartrees-Bohrs-Radians)
 Swapping is turned off.
 Update second derivatives using D2CorX and points    6    7    8    9
 The second derivative matrix:
                          R1        R2        A1
           R1           0.02525
           R2          -0.01565   0.53253
           A1           0.03367   0.00178   0.12725
 ITU=  0  0  0  0
     Eigenvalues ---    0.01468   0.13735   0.53301
 Eigenvectors required to have negative eigenvalues:
                          R1        A1        R2
   1                   -0.95751   0.28684  -0.02992
 RFO step:  Lambda0=7.154592834D-02 Lambda=-1.37760755D-07.
 Linear search not attempted -- option 19 set.
 Iteration  1 RMS(Cart)=  0.00029294 RMS(Int)=  0.00000001
 Iteration  2 RMS(Cart)=  0.00000002 RMS(Int)=  0.00000000
 ClnCor:  largest displacement from symmetrization is 2.70D-15 for atom     2.
 Variable       Old X    -DE/DX   Delta X   Delta X   Delta X     New X
                                 (Linear)    (Quad)   (Total)
    R1        4.01859  -0.06108   0.00000   0.00049   0.00049   4.01907
    R2        1.85207  -0.00164   0.00000   0.00052   0.00052   1.85259
    A1        1.47324   0.01830   0.00000  -0.00010  -0.00010   1.47314
         Item               Value     Threshold  Converged?
 Maximum Force            0.061082     0.000450     NO 
 RMS     Force            0.036827     0.000300     NO 
 Maximum Displacement     0.000297     0.001800     YES
 RMS     Displacement     0.000293     0.001200     YES
 Predicted change in Energy= 3.246173D-05
 GradGradGradGradGradGradGradGradGradGradGradGradGradGradGradGradGradGrad

                          Input orientation:                          
 ---------------------------------------------------------------------
 Center     Atomic      Atomic             Coordinates (Angstroms)
 Number     Number       Type             X           Y           Z
 ---------------------------------------------------------------------
      1         17           0       -1.909838    4.304078   -1.397704
      2          8           0       -3.788665    3.459427   -0.868687
      3          1           0       -3.247073    2.758757   -0.448183
 ---------------------------------------------------------------------
                    Distance matrix (angstroms):
                    1          2          3
     1  Cl   0.000000
     2  O    2.126801   0.000000
     3  H    2.253398   0.980349   0.000000
 Stoichiometry    ClHO
 Framework group  CS[SG(ClHO)]
 Deg. of freedom     3
 Full point group                 CS      NOp   2
 Largest Abelian subgroup         CS      NOp   2
 Largest concise Abelian subgroup C1      NOp   1
                         Standard orientation:                         
 ---------------------------------------------------------------------
 Center     Atomic      Atomic             Coordinates (Angstroms)
 Number     Number       Type             X           Y           Z
 ---------------------------------------------------------------------
      1         17           0        0.037526   -0.732524   -0.000000
      2          8           0        0.037526    1.394277    0.000000
      3          1           0       -0.938152    1.298696    0.000000
 ---------------------------------------------------------------------
 Rotational constants (GHZ):         557.4425166           9.8103520           9.6406869
 Standard basis: SVP (5D, 7F)
 There are    29 symmetry adapted cartesian basis functions of A'  symmetry.
 There are    10 symmetry adapted cartesian basis functions of A"  symmetry.
 There are    27 symmetry adapted basis functions of A'  symmetry.
 There are    10 symmetry adapted basis functions of A"  symmetry.
    37 basis functions,    69 primitive gaussians,    39 cartesian basis functions
    13 alpha electrons       13 beta electrons
       nuclear repulsion energy        42.1491321243 Hartrees.
 NAtoms=    3 NActive=    3 NUniq=    3 SFac= 1.00D+00 NAtFMM=   60 NAOKFM=F Big=F
 Integral buffers will be    131072 words long.
 Raffenetti 2 integral format.
 Two-electron integral symmetry is turned on.
 Nuclear repulsion after empirical dispersion term =       42.1474941780 Hartrees.
 One-electron integrals computed using PRISM.
 NBasis=    37 RedAO= T EigKep=  5.03D-02  NBF=    27    10
 NBsUse=    37 1.00D-06 EigRej= -1.00D+00 NBFU=    27    10
 Initial guess from the checkpoint file:  "/tmp/Gau-30977.chk"
 B after Tr=     0.000000   -0.000000    0.000000
         Rot=    1.000000    0.000000   -0.000000   -0.000005 Ang=  -0.00 deg.
 Initial guess orbital symmetries:
       Occupied  (A') (A') (A') (A') (A') (A") (A') (A') (A') (A')
                 (A") (A') (A")
       Virtual   (A') (A') (A') (A') (A') (A") (A') (A') (A") (A')
                 (A") (A') (A') (A") (A') (A') (A") (A') (A') (A")
                 (A') (A') (A") (A')
 Keep R1 ints in memory in symmetry-blocked form, NReq=7153137.
 Requested convergence on RMS density matrix=1.00D-08 within 128 cycles.
 Requested convergence on MAX density matrix=1.00D-06.
 Requested convergence on             energy=1.00D-06.
 No special actions if energy rises.
 SCF Done:  E(RB3LYP) =  -535.724342685     A.U. after    7 cycles
            NFock=  7  Conv=0.95D-09     -V/T= 2.0032
 Calling FoFJK, ICntrl=      2127 FMM=F ISym2X=1 I1Cent= 0 IOpClX= 0 NMat=1 NMatS=1 NMatT=0.
 ***** Axes restored to original set *****
 -------------------------------------------------------------------
 Center     Atomic                   Forces (Hartrees/Bohr)
 Number     Number              X              Y              Z
 -------------------------------------------------------------------
      1       17          -0.056098123   -0.020813537    0.013121376
      2        8           0.065374924    0.024095285   -0.015194040
      3        1          -0.009276801   -0.003281749    0.002072665
 -------------------------------------------------------------------
 Cartesian Forces:  Max     0.065374924 RMS     0.031515112

 GradGradGradGradGradGradGradGradGradGradGradGradGradGradGradGradGradGrad
 Berny optimization.
 FormGI is forming the generalized inverse of G from B-inverse, IUseBI=4.
 Internal  Forces:  Max     0.061087061 RMS     0.036833050
 Search for a saddle point.
 Step number  10 out of a maximum of  100
 All quantities printed in internal units (Hartrees-Bohrs-Radians)
 Swapping is turned off.
 Update second derivatives using D2CorX and points    7    8   10
 The second derivative matrix:
                          R1        R2        A1
           R1           0.02675
           R2          -0.01793   0.53012
           A1           0.03248   0.00550   0.12753
 ITU=  0  0  0  0
     Eigenvalues ---    0.01651   0.13709   0.53080
 Eigenvectors required to have negative eigenvalues:
                          R1        A1        R2
   1                   -0.95864   0.28227  -0.03649
 RFO step:  Lambda0=7.257931130D-02 Lambda=-1.01011399D-06.
 Linear search not attempted -- option 19 set.
 Iteration  1 RMS(Cart)=  0.00219435 RMS(Int)=  0.00000085
 Iteration  2 RMS(Cart)=  0.00000074 RMS(Int)=  0.00000000
 ClnCor:  largest displacement from symmetrization is 1.83D-15 for atom     2.
 Variable       Old X    -DE/DX   Delta X   Delta X   Delta X     New X
                                 (Linear)    (Quad)   (Total)
    R1        4.01907  -0.06109   0.00000   0.00282   0.00282   4.02189
    R2        1.85259  -0.00189   0.00000   0.00091   0.00091   1.85350
    A1        1.47314   0.01830   0.00000   0.00144   0.00144   1.47458
         Item               Value     Threshold  Converged?
 Maximum Force            0.061087     0.000450     NO 
 RMS     Force            0.036833     0.000300     NO 
 Maximum Displacement     0.001859     0.001800     NO 
 RMS     Displacement     0.002195     0.001200     NO 
 Predicted change in Energy= 1.480119D-04
 GradGradGradGradGradGradGradGradGradGradGradGradGradGradGradGradGradGrad

                          Input orientation:                          
 ---------------------------------------------------------------------
 Center     Atomic      Atomic             Coordinates (Angstroms)
 Number     Number       Type             X           Y           Z
 ---------------------------------------------------------------------
      1         17           0       -1.908914    4.305061   -1.398309
      2          8           0       -3.788783    3.459374   -0.868654
      3          1           0       -3.247878    2.757826   -0.447611
 ---------------------------------------------------------------------
                    Distance matrix (angstroms):
[...]
           R2           0.00288   0.50462
           A1           0.01969  -0.01056   0.13051
 ITU=  0  0  0  0
     Eigenvalues ---    0.01577   0.13363   0.50492
 Eigenvectors required to have negative eigenvalues:
                          R1        A1        R2
   1                   -0.98540   0.16998   0.00948
 RFO step:  Lambda0=7.306004985D-02 Lambda= 0.00000000D+00.
 Linear search not attempted -- option 19 set.
 Iteration  1 RMS(Cart)=  0.00000003 RMS(Int)=  0.00000000
 ClnCor:  largest displacement from symmetrization is 2.70D-15 for atom     2.
 Variable       Old X    -DE/DX   Delta X   Delta X   Delta X     New X
                                 (Linear)    (Quad)   (Total)
    R1        4.09577  -0.06375   0.00000   0.00000   0.00000   4.09577
    R2        1.84818   0.00061   0.00000  -0.00000  -0.00000   1.84818
    A1        1.51345   0.01100   0.00000  -0.00000  -0.00000   1.51345
         Item               Value     Threshold  Converged?
 Maximum Force            0.063751     0.000450     NO 
 RMS     Force            0.037352     0.000300     NO 
 Maximum Displacement     0.000000     0.001800     YES
 RMS     Displacement     0.000000     0.001200     YES
 Predicted change in Energy= 3.596987D-09
 GradGradGradGradGradGradGradGradGradGradGradGradGradGradGradGradGradGrad

                          Input orientation:                          
 ---------------------------------------------------------------------
 Center     Atomic      Atomic             Coordinates (Angstroms)
 Number     Number       Type             X           Y           Z
 ---------------------------------------------------------------------
      1         17           0       -1.884638    4.330304   -1.413841
      2          8           0       -3.788409    3.452131   -0.864262
      3          1           0       -3.272528    2.739827   -0.436472
 ---------------------------------------------------------------------
                    Distance matrix (angstroms):
                    1          2          3
     1  Cl   0.000000
     2  O    2.167387   0.000000
     3  H    2.326178   0.978016   0.000000
 Stoichiometry    ClHO
 Framework group  CS[SG(ClHO)]
 Deg. of freedom     3
 Full point group                 CS      NOp   2
 Largest Abelian subgroup         CS      NOp   2
 Largest concise Abelian subgroup C1      NOp   1
                         Standard orientation:                         
 ---------------------------------------------------------------------
 Center     Atomic      Atomic             Coordinates (Angstroms)
 Number     Number       Type             X           Y           Z
 ---------------------------------------------------------------------
      1         17           0        0.037554   -0.748093   -0.000000
      2          8           0        0.037554    1.419293    0.000000
      3          1           0       -0.938854    1.363241    0.000000
 ---------------------------------------------------------------------
 Rotational constants (GHZ):         557.8161166           9.4259479           9.2693155
 Standard basis: SVP (5D, 7F)
 There are    29 symmetry adapted cartesian basis functions of A'  symmetry.
 There are    10 symmetry adapted cartesian basis functions of A"  symmetry.
 There are    27 symmetry adapted basis functions of A'  symmetry.
 There are    10 symmetry adapted basis functions of A"  symmetry.
    37 basis functions,    69 primitive gaussians,    39 cartesian basis functions
    13 alpha electrons       13 beta electrons
       nuclear repulsion energy        41.4008782000 Hartrees.
 NAtoms=    3 NActive=    3 NUniq=    3 SFac= 1.00D+00 NAtFMM=   60 NAOKFM=F Big=F
 Integral buffers will be    131072 words long.
 Raffenetti 2 integral format.
 Two-electron integral symmetry is turned on.
 Nuclear repulsion after empirical dispersion term =       41.3992294716 Hartrees.
 One-electron integrals computed using PRISM.
 NBasis=    37 RedAO= T EigKep=  5.10D-02  NBF=    27    10
 NBsUse=    37 1.00D-06 EigRej= -1.00D+00 NBFU=    27    10
 Initial guess from the checkpoint file:  "/tmp/Gau-30977.chk"
 B after Tr=    -0.000000    0.000000   -0.000000
         Rot=    1.000000   -0.000000    0.000000    0.000000 Ang=   0.00 deg.
 Initial guess orbital symmetries:
       Occupied  (A') (A') (A') (A') (A') (A") (A') (A') (A') (A')
                 (A") (A') (A")
       Virtual   (A') (A') (A') (A') (A') (A") (A') (A') (A") (A')
                 (A") (A') (A') (A") (A') (A') (A") (A') (A') (A")
                 (A') (A') (A") (A')
 Keep R1 ints in memory in symmetry-blocked form, NReq=7153137.
 Requested convergence on RMS density matrix=1.00D-08 within 128 cycles.
 Requested convergence on MAX density matrix=1.00D-06.
 Requested convergence on             energy=1.00D-06.
 No special actions if energy rises.
 SCF Done:  E(RB3LYP) =  -535.720139533     A.U. after    3 cycles
            NFock=  3  Conv=0.86D-10     -V/T= 2.0032
 Calling FoFJK, ICntrl=      2127 FMM=F ISym2X=1 I1Cent= 0 IOpClX= 0 NMat=1 NMatS=1 NMatT=0.
 ***** Axes restored to original set *****
 -------------------------------------------------------------------
 Center     Atomic                   Forces (Hartrees/Bohr)
 Number     Number              X              Y              Z
 -------------------------------------------------------------------
      1       17          -0.057279895   -0.023810035    0.014950251
      2        8           0.062011931    0.026920110   -0.016879051
      3        1          -0.004732036   -0.003110074    0.001928799
 -------------------------------------------------------------------
 Cartesian Forces:  Max     0.062011931 RMS     0.031556428

 GradGradGradGradGradGradGradGradGradGradGradGradGradGradGradGradGradGrad
 Berny optimization.
 Internal  Forces:  Max     0.063751399 RMS     0.037352153
 Search for a saddle point.
 Step number  99 out of a maximum of  100
 All quantities printed in internal units (Hartrees-Bohrs-Radians)
 Swapping is turned off.
 Update second derivatives using D2CorX and points   99
 The second derivative matrix:
                          R1        R2        A1
           R1           0.01920
           R2           0.00288   0.50462
           A1           0.01969  -0.01056   0.13051
 ITU=  0  0  0  0
     Eigenvalues ---    0.01577   0.13363   0.50492
 Eigenvectors required to have negative eigenvalues:
                          R1        A1        R2
   1                   -0.98540   0.16998   0.00948
 RFO step:  Lambda0=7.306005322D-02 Lambda= 0.00000000D+00.
 Linear search not attempted -- option 19 set.
 Iteration  1 RMS(Cart)=  0.00000002 RMS(Int)=  0.00000000
 ClnCor:  largest displacement from symmetrization is 2.90D-15 for atom     3.
 Variable       Old X    -DE/DX   Delta X   Delta X   Delta X     New X
                                 (Linear)    (Quad)   (Total)
    R1        4.09577  -0.06375   0.00000   0.00000   0.00000   4.09577
    R2        1.84818   0.00061   0.00000   0.00000   0.00000   1.84818
    A1        1.51345   0.01100   0.00000  -0.00000  -0.00000   1.51345
         Item               Value     Threshold  Converged?
 Maximum Force            0.063751     0.000450     NO 
 RMS     Force            0.037352     0.000300     NO 
 Maximum Displacement     0.000000     0.001800     YES
 RMS     Displacement     0.000000     0.001200     YES
 Predicted change in Energy= 2.830467D-09
 GradGradGradGradGradGradGradGradGradGradGradGradGradGradGradGradGradGrad

                          Input orientation:                          
 ---------------------------------------------------------------------
 Center     Atomic      Atomic             Coordinates (Angstroms)
 Number     Number       Type             X           Y           Z
 ---------------------------------------------------------------------
      1         17           0       -1.884638    4.330304   -1.413841
      2          8           0       -3.788409    3.452131   -0.864262
      3          1           0       -3.272528    2.739827   -0.436472
 ---------------------------------------------------------------------
                    Distance matrix (angstroms):
                    1          2          3
     1  Cl   0.000000
     2  O    2.167387   0.000000
     3  H    2.326178   0.978016   0.000000
 Stoichiometry    ClHO
 Framework group  CS[SG(ClHO)]
 Deg. of freedom     3
 Full point group                 CS      NOp   2
 Largest Abelian subgroup         CS      NOp   2
 Largest concise Abelian subgroup C1      NOp   1
                         Standard orientation:                         
 ---------------------------------------------------------------------
 Center     Atomic      Atomic             Coordinates (Angstroms)
 Number     Number       Type             X           Y           Z
 ---------------------------------------------------------------------
      1         17           0        0.037554   -0.748093   -0.000000
      2          8           0        0.037554    1.419294    0.000000
      3          1           0       -0.938854    1.363241    0.000000
 ---------------------------------------------------------------------
 Rotational constants (GHZ):         557.8160911           9.4259477           9.2693153
 Standard basis: SVP (5D, 7F)
 There are    29 symmetry adapted cartesian basis functions of A'  symmetry.
 There are    10 symmetry adapted cartesian basis functions of A"  symmetry.
 There are    27 symmetry adapted basis functions of A'  symmetry.
 There are    10 symmetry adapted basis functions of A"  symmetry.
    37 basis functions,    69 primitive gaussians,    39 cartesian basis functions
    13 alpha electrons       13 beta electrons
       nuclear repulsion energy        41.4008777248 Hartrees.
 NAtoms=    3 NActive=    3 NUniq=    3 SFac= 1.00D+00 NAtFMM=   60 NAOKFM=F Big=F
 Integral buffers will be    131072 words long.
 Raffenetti 2 integral format.
 Two-electron integral symmetry is turned on.
 Nuclear repulsion after empirical dispersion term =       41.3992289964 Hartrees.
 One-electron integrals computed using PRISM.
 NBasis=    37 RedAO= T EigKep=  5.10D-02  NBF=    27    10
 NBsUse=    37 1.00D-06 EigRej= -1.00D+00 NBFU=    27    10
 Initial guess from the checkpoint file:  "/tmp/Gau-30977.chk"
 B after Tr=     0.000000   -0.000000    0.000000
         Rot=    1.000000   -0.000000    0.000000   -0.000000 Ang=   0.00 deg.
 Initial guess orbital symmetries:
       Occupied  (A') (A') (A') (A') (A') (A") (A') (A') (A') (A')
                 (A") (A') (A")
       Virtual   (A') (A') (A') (A') (A') (A") (A') (A') (A") (A')
                 (A") (A') (A') (A") (A') (A') (A") (A') (A') (A")
                 (A') (A') (A") (A')
 Keep R1 ints in memory in symmetry-blocked form, NReq=7153137.
 Requested convergence on RMS density matrix=1.00D-08 within 128 cycles.
 Requested convergence on MAX density matrix=1.00D-06.
 Requested convergence on             energy=1.00D-06.
 No special actions if energy rises.
 SCF Done:  E(RB3LYP) =  -535.720139530     A.U. after    1 cycles
            NFock=  1  Conv=0.58D-09     -V/T= 2.0032
 Calling FoFJK, ICntrl=      2127 FMM=F ISym2X=1 I1Cent= 0 IOpClX= 0 NMat=1 NMatS=1 NMatT=0.
 ***** Axes restored to original set *****
 -------------------------------------------------------------------
 Center     Atomic                   Forces (Hartrees/Bohr)
 Number     Number              X              Y              Z
 -------------------------------------------------------------------
      1       17          -0.057279896   -0.023810035    0.014950251
      2        8           0.062011944    0.026920093   -0.016879040
      3        1          -0.004732048   -0.003110057    0.001928789
 -------------------------------------------------------------------
 Cartesian Forces:  Max     0.062011944 RMS     0.031556429

 GradGradGradGradGradGradGradGradGradGradGradGradGradGradGradGradGradGrad
 Berny optimization.
 Internal  Forces:  Max     0.063751399 RMS     0.037352153
 Search for a saddle point.
 Step number 100 out of a maximum of  100
 All quantities printed in internal units (Hartrees-Bohrs-Radians)
 Swapping is turned off.
 Update second derivatives using D2CorX and points  100
 The second derivative matrix:
                          R1        R2        A1
           R1           0.01920
           R2           0.00288   0.50462
           A1           0.01969  -0.01056   0.13051
 ITU=  0  0  0  0
     Eigenvalues ---    0.01577   0.13363   0.50492
 Eigenvectors required to have negative eigenvalues:
                          R1        A1        R2
   1                   -0.98540   0.16998   0.00948
 RFO step:  Lambda0=7.306005315D-02 Lambda= 0.00000000D+00.
 Linear search not attempted -- option 19 set.
 Iteration  1 RMS(Cart)=  0.00000000 RMS(Int)=  0.00000000
 ClnCor:  largest displacement from symmetrization is 2.00D-15 for atom     2.
 Variable       Old X    -DE/DX   Delta X   Delta X   Delta X     New X
                                 (Linear)    (Quad)   (Total)
    R1        4.09577  -0.06375   0.00000   0.00000   0.00000   4.09577
    R2        1.84818   0.00061   0.00000  -0.00000  -0.00000   1.84818
    A1        1.51345   0.01100   0.00000  -0.00000  -0.00000   1.51345
         Item               Value     Threshold  Converged?
 Maximum Force            0.063751     0.000450     NO 
 RMS     Force            0.037352     0.000300     NO 
 Maximum Displacement     0.000000     0.001800     YES
 RMS     Displacement     0.000000     0.001200     YES
 Predicted change in Energy= 3.722470D-10
 Optimization stopped.
    -- Number of steps exceeded,  NStep= 100
    -- Flag reset to prevent archiving.
                           ----------------------------
                           ! Non-Optimized Parameters !
                           ! (Angstroms and Degrees)  !
 --------------------------                            --------------------------
 ! Name  Definition              Value          Derivative Info.                !
 --------------------------------------------------------------------------------
 ! R1    R(1,2)                  2.1674         -DE/DX =   -0.0638              !
 ! R2    R(2,3)                  0.978          -DE/DX =    0.0006              !
 ! A1    A(1,2,3)               86.7144         -DE/DX =    0.011               !
 --------------------------------------------------------------------------------
 GradGradGradGradGradGradGradGradGradGradGradGradGradGradGradGradGradGrad

                          Input orientation:                          
 ---------------------------------------------------------------------
 Center     Atomic      Atomic             Coordinates (Angstroms)
 Number     Number       Type             X           Y           Z
 ---------------------------------------------------------------------
      1         17           0       -1.884638    4.330304   -1.413841
      2          8           0       -3.788409    3.452131   -0.864262
      3          1           0       -3.272528    2.739827   -0.436472
 ---------------------------------------------------------------------
                    Distance matrix (angstroms):
                    1          2          3
     1  Cl   0.000000
     2  O    2.167387   0.000000
     3  H    2.326178   0.978016   0.000000
 Stoichiometry    ClHO
 Framework group  CS[SG(ClHO)]
 Deg. of freedom     3
 Full point group                 CS      NOp   2
 Largest Abelian subgroup         CS      NOp   2
 Largest concise Abelian subgroup C1      NOp   1
                         Standard orientation:                         
 ---------------------------------------------------------------------
 Center     Atomic      Atomic             Coordinates (Angstroms)
 Number     Number       Type             X           Y           Z
 ---------------------------------------------------------------------
      1         17           0        0.037554   -0.748093    0.000000
      2          8           0        0.037554    1.419294   -0.000000
      3          1           0       -0.938854    1.363241   -0.000000
 ---------------------------------------------------------------------
 Rotational constants (GHZ):         557.8160911           9.4259477           9.2693153

 **********************************************************************

            Population analysis using the SCF density.

 **********************************************************************

 Orbital symmetries:
       Occupied  (A') (A') (A') (A') (A') (A") (A') (A') (A') (A')
                 (A") (A') (A")
       Virtual   (A') (A') (A') (A') (A') (A") (A') (A') (A") (A')
                 (A") (A') (A') (A") (A') (A') (A") (A') (A') (A")
                 (A') (A') (A") (A')
 The electronic state is 1-A'.
 Alpha  occ. eigenvalues -- -101.54951 -19.22440  -9.49769  -7.27107  -7.25530
 Alpha  occ. eigenvalues --   -7.25506  -0.99338  -0.80501  -0.48057  -0.40694
 Alpha  occ. eigenvalues --   -0.36182  -0.33133  -0.31396
 Alpha virt. eigenvalues --   -0.19170   0.05320   0.46529   0.56432   0.66623
 Alpha virt. eigenvalues --    0.71115   0.71486   0.76280   0.76346   0.82586
 Alpha virt. eigenvalues --    0.82847   0.89430   0.94665   0.96486   1.00960
 Alpha virt. eigenvalues --    1.37302   1.39642   1.43712   2.14039   2.58151
 Alpha virt. eigenvalues --    2.65218   2.90348   2.92170   3.63370
          Condensed to atoms (all electrons):
               1          2          3
     1  Cl  16.859286   0.146018  -0.003211
     2  O    0.146018   7.780378   0.282175
     3  H   -0.003211   0.282175   0.510370
 Mulliken charges:
               1
     1  Cl  -0.002093
     2  O   -0.208572
     3  H    0.210665
 Sum of Mulliken charges =  -0.00000
 Mulliken charges with hydrogens summed into heavy atoms:
               1
     1  Cl  -0.002093
     2  O    0.002093
 Electronic spatial extent (au):  <R**2>=            139.8341
 Charge=              0.0000 electrons
 Dipole moment (field-independent basis, Debye):
    X=             -1.6747    Y=             -0.0542    Z=             -0.0000  Tot=              1.6756
 Quadrupole moment (field-independent basis, Debye-Ang):
   XX=            -16.6669   YY=            -16.1620   ZZ=            -18.8215
   XY=             -2.4937   XZ=              0.0000   YZ=             -0.0000
 Traceless Quadrupole moment (field-independent basis, Debye-Ang):
   XX=              0.5499   YY=              1.0548   ZZ=             -1.6047
   XY=             -2.4937   XZ=              0.0000   YZ=             -0.0000
 Octapole moment (field-independent basis, Debye-Ang**2):
  XXX=             -2.2260  YYY=              0.6842  ZZZ=             -0.0000  XYY=             -3.7351
  XXY=              3.4823  XXZ=             -0.0000  XZZ=             -0.2443  YZZ=              0.5239
  YYZ=             -0.0000  XYZ=              0.0000
 Hexadecapole moment (field-independent basis, Debye-Ang**3):
 XXXX=            -17.1217 YYYY=           -112.3594 ZZZZ=            -16.8831 XXXY=             -0.3091
 XXXZ=              0.0000 YYYX=             -3.1514 YYYZ=             -0.0000 ZZZX=              0.0000
 ZZZY=             -0.0000 XXYY=            -20.8367 XXZZ=             -5.9837 YYZZ=            -24.5687
 XXYZ=             -0.0000 YYXZ=              0.0000 ZZXY=              0.5766
 N-N= 4.139922899638D+01 E-N=-1.355474576770D+03  KE= 5.340189477419D+02
 Symmetry A'   KE= 4.832656170833D+02
 Symmetry A"   KE= 5.075333065869D+01


 EVERYTHING'S GOT A MORAL, IF ONLY YOU CAN FIND IT.

                                    -- LEWIS CARROL, ALICE IN WONDERLAND
 Error termination request processed by link 9999.
 Error termination via Lnk1e in /share/apps/g16.a03/g16/l9999.exe at Thu Mar  6 16:40:24 2025.
 Job cpu time:       0 days  0 hours 13 minutes  4.0 seconds.
 Elapsed time:       0 days  0 hours  1 minutes 40.7 seconds.
 File lengths (MBytes):  RWF=      6 Int=      0 D2E=      0 Chk=      1 Scr=      1
