 Entering Gaussian System, Link 0=g16
 Input=ts.gjf
 Output=ts.log
 Initial command:
 /share/apps/g16.a03/g16/l1.exe "/tmp/Gau-13401.inp" -scrdir="/tmp/"
 Entering Link 1 = /share/apps/g16.a03/g16/l1.exe PID=     13403.
  
 Copyright (c) 1988,1990,1992,1993,1995,1998,2003,2009,2016,
            Gaussian, Inc.  All Rights Reserved.
  
 This is part of the Gaussian(R) 16 program.  It is based on
 the Gaussian(R) 09 system (copyright 2009, Gaussian, Inc.),
 the Gaussian(R) 03 system (copyright 2003, Gaussian, Inc.),
 the Gaussian(R) 98 system (copyright 1998, Gaussian, Inc.),
 the Gaussian(R) 94 system (copyright 1995, Gaussian, Inc.),
 the Gaussian 92(TM) system (copyright 1992, Gaussian, Inc.),
 the Gaussian 90(TM) system (copyright 1990, Gaussian, Inc.),
 the Gaussian 88(TM) system (copyright 1988, Gaussian, Inc.),
 the Gaussian 86(TM) system (copyright 1986, Carnegie Mellon
 University), and the Gaussian 82(TM) system (copyright 1983,
 Carnegie Mellon University). Gaussian is a federally registered
 trademark of Gaussian, Inc.
  
 This software contains proprietary and confidential information,
 including trade secrets, belonging to Gaussian, Inc.
  
 This software is provided under written license and may be
 used, copied, transmitted, or stored only in accord with that
 written license.
  
 The following legend is applicable only to US Government
 contracts under FAR:
  
                    RESTRICTED RIGHTS LEGEND
  
 Use, reproduction and disclosure by the US Government is
 subject to restrictions as set forth in subparagraphs (a)
 and (c) of the Commercial Computer Software - Restricted
 Rights clause in FAR 52.227-19.
  
 Gaussian, Inc.
 340 Quinnipiac St., Bldg. 40, Wallingford CT 06492
  
  
 ---------------------------------------------------------------
 Warning -- This program may not be used in any manner that
 competes with the business of Gaussian, Inc. or will provide
 assistance to any competitor of Gaussian, Inc.  The licensee
 of this program is prohibited from giving any competitor of
 Gaussian, Inc. access to this program.  By using this program,
 the user acknowledges that Gaussian, Inc. is engaged in the
 business of creating and licensing software in the field of
 computational chemistry and represents and warrants to the
 licensee that it is not a competitor of Gaussian, Inc. and that
 it will not use this program in any manner prohibited above.
 ---------------------------------------------------------------
  

 Cite this work as:
 Gaussian 16, Revision A.03,
 M. J. Frisch, G. W. Trucks, H. B. Schlegel, G. E. Scuseria, 
 M. A. Robb, J. R. Cheeseman, G. Scalmani, V. Barone, 
 G. A. Petersson, H. Nakatsuji, X. Li, M. Caricato, A. V. Marenich, 
 J. Bloino, B. G. Janesko, R. Gomperts, B. Mennucci, H. P. Hratchian, 
 J. V. Ortiz, A. F. Izmaylov, J. L. Sonnenberg, D. Williams-Young, 
 F. Ding, F. Lipparini, F. Egidi, J. Goings, B. Peng, A. Petrone, 
 T. Henderson, D. Ranasinghe, V. G. Zakrzewski, J. Gao, N. Rega, 
 G. Zheng, W. Liang, M. Hada, M. Ehara, K. Toyota, R. Fukuda, 
 J. Hasegawa, M. Ishida, T. Nakajima, Y. Honda, O. Kitao, H. Nakai, 
 T. Vreven, K. Throssell, J. A. Montgomery, Jr., J. E. Peralta, 
 F. Ogliaro, M. J. Bearpark, J. J. Heyd, E. N. Brothers, K. N. Kudin, 
 V. N. Staroverov, T. A. Keith, R. Kobayashi, J. Normand, 
 K. Raghavachari, A. P. Rendell, J. C. Burant, S. S. Iyengar, 
 J. Tomasi, M. Cossi, J. M. Millam, M. Klene, C. Adamo, R. Cammi, 
 J. W. Ochterski, R. L. Martin, K. Morokuma, O. Farkas, 
 J. B. Foresman, and D. J. Fox, Gaussian, Inc., Wallingford CT, 2016.
 
 ******************************************
 Gaussian 16:  EM64L-G16RevA.03 25-Dec-2016
                 6-Mar-2025 
 ******************************************
 %nproc=8
 Will use up to    8 processors via shared memory.
 %mem=4000MB
 --------------------------------------------------------------------
 #opt=(noeigen,calcfc,ts,recalc=5,maxcyc=200) freq B3LYP/SVP em=GD3BJ
 --------------------------------------------------------------------
 1/5=1,6=200,10=4,11=1,18=20,26=3,38=1,71=5/1,3;
 2/9=110,12=2,17=6,18=5,40=1/2;
 3/5=18,7=101,11=2,25=1,30=1,71=2,74=-5,124=41,140=1/1,2,3;
 4//1;
 5/5=2,38=5/2;
 8/6=4,10=90,11=11/1;
 11/6=1,8=1,9=11,15=111,16=1/1,2,10;
 10/6=1,13=1/2;
 6/7=2,8=2,9=2,10=2,28=1/1;
 7/10=1,18=20,25=1/1,2,3,16;
 1/5=1,6=200,10=4,11=1,18=20,26=3,71=5/3(2);
 2/9=110/2;
 99//99;
 2/9=110/2;
 3/5=18,7=101,11=2,25=1,30=1,71=1,74=-5,124=41/1,2,3;
 4/5=5,16=3,69=1/1;
 5/5=2,38=5/2;
 7//1,2,3,16;
 1/5=1,6=200,11=1,18=20,26=3,71=5/3(-5);
 2/9=110/2;
 6/7=2,8=2,9=2,10=2,19=2,28=1/1;
 99/9=1/99;
 -----------
 ts-1604.gjf
 -----------
 Symbolic Z-matrix:
 Charge =  0 Multiplicity = 1
 Cl                   -3.10312   3.78907  -1.74781 
 O                    -1.80775   4.27916  -0.88009 
 H                    -1.78009   3.74457  -0.04873 
 

 GradGradGradGradGradGradGradGradGradGradGradGradGradGradGradGradGradGrad
 Berny optimization.
 Initialization pass.
                           ----------------------------
                           !    Initial Parameters    !
                           ! (Angstroms and Degrees)  !
 --------------------------                            --------------------------
 ! Name  Definition              Value          Derivative Info.                !
 --------------------------------------------------------------------------------
 ! R1    R(1,2)                  1.6344         calculate D2E/DX2 analytically  !
 ! R2    R(2,3)                  0.9888         calculate D2E/DX2 analytically  !
 ! A1    A(1,2,3)              107.8446         calculate D2E/DX2 analytically  !
 --------------------------------------------------------------------------------
 Trust Radius=3.00D-01 FncErr=1.00D-07 GrdErr=1.00D-06 EigMax=2.50D+02 EigMin=1.00D-04
 Number of steps in this run=    100 maximum allowed number of steps=    100.
 Search for a saddle point of order  1.
 GradGradGradGradGradGradGradGradGradGradGradGradGradGradGradGradGradGrad

                          Input orientation:                          
 ---------------------------------------------------------------------
 Center     Atomic      Atomic             Coordinates (Angstroms)
 Number     Number       Type             X           Y           Z
 ---------------------------------------------------------------------
      1         17           0       -3.103116    3.789075   -1.747811
      2          8           0       -1.807745    4.279165   -0.880092
      3          1           0       -1.780087    3.744566   -0.048730
 ---------------------------------------------------------------------
                    Distance matrix (angstroms):
                    1          2          3
     1  Cl   0.000000
     2  O    1.634354   0.000000
     3  H    2.153895   0.988799   0.000000
 Stoichiometry    ClHO
 Framework group  CS[SG(ClHO)]
 Deg. of freedom     3
 Full point group                 CS      NOp   2
 Largest Abelian subgroup         CS      NOp   2
 Largest concise Abelian subgroup C1      NOp   1
                         Standard orientation:                         
 ---------------------------------------------------------------------
 Center     Atomic      Atomic             Coordinates (Angstroms)
 Number     Number       Type             X           Y           Z
 ---------------------------------------------------------------------
      1         17           0        0.036201   -0.577392   -0.000000
      2          8           0        0.036201    1.056962    0.000000
      3          1           0       -0.905028    1.359966    0.000000
 ---------------------------------------------------------------------
 Rotational constants (GHZ):         617.8422999          16.1061535          15.6969590
 Standard basis: SVP (5D, 7F)
 There are    29 symmetry adapted cartesian basis functions of A'  symmetry.
 There are    10 symmetry adapted cartesian basis functions of A"  symmetry.
 There are    27 symmetry adapted basis functions of A'  symmetry.
 There are    10 symmetry adapted basis functions of A"  symmetry.
    37 basis functions,    69 primitive gaussians,    39 cartesian basis functions
    13 alpha electrons       13 beta electrons
       nuclear repulsion energy        52.4925969814 Hartrees.
 NAtoms=    3 NActive=    3 NUniq=    3 SFac= 1.00D+00 NAtFMM=   60 NAOKFM=F Big=F
 Integral buffers will be    131072 words long.
 Raffenetti 2 integral format.
 Two-electron integral symmetry is turned on.
 Nuclear repulsion after empirical dispersion term =       52.4909803363 Hartrees.
 One-electron integrals computed using PRISM.
 NBasis=    37 RedAO= T EigKep=  3.10D-02  NBF=    27    10
 NBsUse=    37 1.00D-06 EigRej= -1.00D+00 NBFU=    27    10
 ExpMin= 1.22D-01 ExpMax= 1.04D+04 ExpMxC= 1.57D+03 IAcc=3 IRadAn=         5 AccDes= 0.00D+00
 Harris functional with IExCor=  402 and IRadAn=       5 diagonalized for initial guess.
 HarFok:  IExCor=  402 AccDes= 0.00D+00 IRadAn=         5 IDoV= 1 UseB2=F ITyADJ=14
 ICtDFT=  3500011 ScaDFX=  1.000000  1.000000  1.000000  1.000000
 FoFCou: FMM=F IPFlag=           0 FMFlag=      100000 FMFlg1=           0
         NFxFlg=           0 DoJE=T BraDBF=F KetDBF=T FulRan=T
         wScrn=  0.000000 ICntrl=       500 IOpCl=  0 I1Cent=   200000004 NGrid=           0
         NMat0=    1 NMatS0=      1 NMatT0=    0 NMatD0=    1 NMtDS0=    0 NMtDT0=    0
 Petite list used in FoFCou.
 Initial guess orbital symmetries:
       Occupied  (A') (A') (A') (A') (A') (A") (A') (A') (A') (A')
                 (A") (A') (A")
       Virtual   (A') (A') (A') (A') (A') (A") (A') (A') (A") (A')
                 (A") (A') (A") (A') (A') (A') (A") (A') (A') (A")
                 (A') (A") (A') (A')
 The electronic state of the initial guess is 1-A'.
 Keep R1 ints in memory in symmetry-blocked form, NReq=7153137.
 Requested convergence on RMS density matrix=1.00D-08 within 128 cycles.
 Requested convergence on MAX density matrix=1.00D-06.
 Requested convergence on             energy=1.00D-06.
 No special actions if energy rises.
 Integral accuracy reduced to 1.0D-05 until final iterations.
 Initial convergence to 1.0D-05 achieved.  Increase integral accuracy.
 SCF Done:  E(RB3LYP) =  -535.756259602     A.U. after   11 cycles
            NFock= 11  Conv=0.89D-08     -V/T= 2.0023
 DoSCS=F DFT=T ScalE2(SS,OS)=  1.000000  1.000000
 Range of M.O.s used for correlation:     1    37
 NBasis=    37 NAE=    13 NBE=    13 NFC=     0 NFV=     0
 NROrb=     37 NOA=    13 NOB=    13 NVA=    24 NVB=    24
 Symmetrizing basis deriv contribution to polar:
 IMax=3 JMax=2 DiffMx= 0.00D+00
 G2DrvN: will do     4 centers at a time, making    1 passes.
 Calling FoFCou, ICntrl=  3107 FMM=F I1Cent=   0 AccDes= 0.00D+00.
 End of G2Drv F.D. properties file   721 does not exist.
 End of G2Drv F.D. properties file   722 does not exist.
 End of G2Drv F.D. properties file   788 does not exist.
          IDoAtm=111
          Differentiating once with respect to nuclear coordinates.
 Keep R1 ints in memory in symmetry-blocked form, NReq=7127942.
          There are    12 degrees of freedom in the 1st order CPHF.  IDoFFX=6 NUNeed=     0.
      6 vectors produced by pass  0 Test12= 2.60D-15 8.33D-09 XBig12= 6.55D-02 1.60D-01.
 AX will form     6 AO Fock derivatives at one time.
      6 vectors produced by pass  1 Test12= 2.60D-15 8.33D-09 XBig12= 2.35D-02 6.36D-02.
      6 vectors produced by pass  2 Test12= 2.60D-15 8.33D-09 XBig12= 5.73D-04 9.20D-03.
      6 vectors produced by pass  3 Test12= 2.60D-15 8.33D-09 XBig12= 7.75D-06 9.78D-04.
      6 vectors produced by pass  4 Test12= 2.60D-15 8.33D-09 XBig12= 6.90D-08 8.17D-05.
      6 vectors produced by pass  5 Test12= 2.60D-15 8.33D-09 XBig12= 4.16D-10 6.93D-06.
      4 vectors produced by pass  6 Test12= 2.60D-15 8.33D-09 XBig12= 4.96D-13 2.39D-07.
 InvSVY:  IOpt=1 It=  1 EMax= 2.22D-16
 Solved reduced A of dimension    40 with     6 vectors.
 End of Minotr F.D. properties file   721 does not exist.
 End of Minotr F.D. properties file   722 does not exist.
 End of Minotr F.D. properties file   788 does not exist.

 **********************************************************************

            Population analysis using the SCF density.

 **********************************************************************

 Orbital symmetries:
       Occupied  (A') (A') (A') (A') (A') (A") (A') (A') (A') (A')
                 (A") (A') (A")
       Virtual   (A') (A') (A') (A') (A') (A") (A') (A') (A") (A')
                 (A") (A') (A") (A') (A') (A') (A") (A') (A') (A")
                 (A') (A") (A') (A')
 The electronic state is 1-A'.
 Alpha  occ. eigenvalues -- -101.53580 -19.18861  -9.48919  -7.26246  -7.24610
 Alpha  occ. eigenvalues --   -7.24567  -1.06560  -0.78324  -0.53412  -0.43543
 Alpha  occ. eigenvalues --   -0.41048  -0.30282  -0.26702
 Alpha virt. eigenvalues --   -0.03870   0.06405   0.44668   0.53218   0.69760
 Alpha virt. eigenvalues --    0.70397   0.73477   0.76129   0.76225   0.84336
 Alpha virt. eigenvalues --    0.85005   0.95128   0.99633   1.06151   1.14790
 Alpha virt. eigenvalues --    1.29119   1.42428   1.58910   2.12766   2.64101
 Alpha virt. eigenvalues --    2.86400   2.89902   2.99985   3.61529
          Condensed to atoms (all electrons):
               1          2          3
     1  Cl  16.826592   0.091209  -0.028295
     2  O    0.091209   7.929844   0.308105
     3  H   -0.028295   0.308105   0.501525
 Mulliken charges:
               1
     1  Cl   0.110493
     2  O   -0.329158
     3  H    0.218665
 Sum of Mulliken charges =   0.00000
 Mulliken charges with hydrogens summed into heavy atoms:
               1
     1  Cl   0.110493
     2  O   -0.110493
 APT charges:
               1
     1  Cl   0.120635
     2  O   -0.583331
     3  H    0.462696
 Sum of APT charges =   0.00000
 APT charges with hydrogens summed into heavy atoms:
               1
     1  Cl   0.120635
     2  O   -0.120635
 Electronic spatial extent (au):  <R**2>=             99.8708
 Charge=              0.0000 electrons
 Dipole moment (field-independent basis, Debye):
    X=             -1.6872    Y=              0.2125    Z=              0.0000  Tot=              1.7005
 Quadrupole moment (field-independent basis, Debye-Ang):
   XX=            -16.5123   YY=            -16.1694   ZZ=            -18.5229
   XY=             -2.6616   XZ=             -0.0000   YZ=             -0.0000
 Traceless Quadrupole moment (field-independent basis, Debye-Ang):
   XX=              0.5559   YY=              0.8988   ZZ=             -1.4547
   XY=             -2.6616   XZ=             -0.0000   YZ=             -0.0000
 Octapole moment (field-independent basis, Debye-Ang**2):
  XXX=             -2.1456  YYY=              1.2503  ZZZ=             -0.0000  XYY=             -3.7126
  XXY=              3.2589  XXZ=             -0.0000  XZZ=             -0.2398  YZZ=              0.7145
  YYZ=             -0.0000  XYZ=             -0.0000
 Hexadecapole moment (field-independent basis, Debye-Ang**3):
 XXXX=            -16.7781 YYYY=            -71.1592 ZZZZ=            -16.5401 XXXY=             -0.4638
 XXXZ=             -0.0000 YYYX=             -3.6268 YYYZ=             -0.0000 ZZZX=              0.0000
 ZZZY=             -0.0000 XXYY=            -13.6739 XXZZ=             -5.8319 YYZZ=            -16.8409
 XXYZ=             -0.0000 YYXZ=             -0.0000 ZZXY=              0.5234
 N-N= 5.249098033625D+01 E-N=-1.378098420408D+03  KE= 5.345047378059D+02
 Symmetry A'   KE= 4.837336741117D+02
 Symmetry A"   KE= 5.077106369412D+01
  Exact polarizability:   0.000   0.000   0.000   0.000   0.000   0.000
 Approx polarizability:  14.460  -1.799  29.903  -0.000   0.000  10.293
 Calling FoFJK, ICntrl=    100147 FMM=F ISym2X=1 I1Cent= 0 IOpClX= 0 NMat=1 NMatS=1 NMatT=0.
 ***** Axes restored to original set *****
 -------------------------------------------------------------------
 Center     Atomic                   Forces (Hartrees/Bohr)
 Number     Number              X              Y              Z
 -------------------------------------------------------------------
      1       17          -0.034376895   -0.014585267   -0.020672860
      2        8           0.038543393    0.008031722    0.035587700
      3        1          -0.004166499    0.006553545   -0.014914840
 -------------------------------------------------------------------
 Cartesian Forces:  Max     0.038543393 RMS     0.023383791
 FormGI is forming the generalized inverse of G from B-inverse, IUseBI=4.

 GradGradGradGradGradGradGradGradGradGradGradGradGradGradGradGradGradGrad
 Berny optimization.
 Internal  Forces:  Max     0.042596296 RMS     0.026757208
 Search for a saddle point.
 Step number   1 out of a maximum of  100
 All quantities printed in internal units (Hartrees-Bohrs-Radians)
 Swapping is turned off.
 Second derivative matrix not updated -- analytic derivatives used.
 The second derivative matrix:
                          R1        R2        A1
           R1           0.36000
           R2          -0.00823   0.44528
           A1           0.06240  -0.00190   0.19219
 ITU=  0
     Eigenvalues ---    0.17153   0.37959   0.44636
 Eigenvectors required to have negative eigenvalues:
                          A1        R1        R2
   1                    0.94928  -0.31443  -0.00287
 RFO step:  Lambda0=1.741467643D-01 Lambda=-4.23998455D-03.
 Linear search not attempted -- option 19 set.
 Iteration  1 RMS(Cart)=  0.10030403 RMS(Int)=  0.00420541
 Iteration  2 RMS(Cart)=  0.00360443 RMS(Int)=  0.00000084
 Iteration  3 RMS(Cart)=  0.00000087 RMS(Int)=  0.00000000
 ClnCor:  largest displacement from symmetrization is 9.16D-16 for atom     2.
 Variable       Old X    -DE/DX   Delta X   Delta X   Delta X     New X
                                 (Linear)    (Quad)   (Total)
    R1        3.08848   0.04260   0.00000   0.06003   0.06003   3.14851
    R2        1.86856  -0.01620   0.00000  -0.03465  -0.03465   1.83391
    A1        1.88224  -0.00842   0.00000   0.12860   0.12860   2.01084
         Item               Value     Threshold  Converged?
 Maximum Force            0.042596     0.000450     NO 
 RMS     Force            0.026757     0.000300     NO 
 Maximum Displacement     0.089852     0.001800     NO 
 RMS     Displacement     0.098673     0.001200     NO 
 Predicted change in Energy= 9.774411D-04
 GradGradGradGradGradGradGradGradGradGradGradGradGradGradGradGradGradGrad

                          Input orientation:                          
 ---------------------------------------------------------------------
 Center     Atomic      Atomic             Coordinates (Angstroms)
 Number     Number       Type             X           Y           Z
 ---------------------------------------------------------------------
      1         17           0       -3.130063    3.798659   -1.795359
      2          8           0       -1.827547    4.248549   -0.858872
      3          1           0       -1.733338    3.765598   -0.022402
 ---------------------------------------------------------------------
                    Distance matrix (angstroms):
                    1          2          3
     1  Cl   0.000000
     2  O    1.666121   0.000000
     3  H    2.257280   0.970463   0.000000
 Stoichiometry    ClHO
 Framework group  CS[SG(ClHO)]
 Deg. of freedom     3
 Full point group                 CS      NOp   2
 Largest Abelian subgroup         CS      NOp   2
 Largest concise Abelian subgroup C1      NOp   1
                         Standard orientation:                         
 ---------------------------------------------------------------------
 Center     Atomic      Atomic             Coordinates (Angstroms)
 Number     Number       Type             X           Y           Z
 ---------------------------------------------------------------------
      1         17           0        0.033770   -0.592634    0.000000
      2          8           0        0.033770    1.073487   -0.000000
      3          1           0       -0.844239    1.486888   -0.000000
 ---------------------------------------------------------------------
 Rotational constants (GHZ):         716.7197103          15.3529693          15.0309880
 Standard basis: SVP (5D, 7F)
 There are    29 symmetry adapted cartesian basis functions of A'  symmetry.
 There are    10 symmetry adapted cartesian basis functions of A"  symmetry.
 There are    27 symmetry adapted basis functions of A'  symmetry.
 There are    10 symmetry adapted basis functions of A"  symmetry.
    37 basis functions,    69 primitive gaussians,    39 cartesian basis functions
    13 alpha electrons       13 beta electrons
       nuclear repulsion energy        51.5425987504 Hartrees.
 NAtoms=    3 NActive=    3 NUniq=    3 SFac= 1.00D+00 NAtFMM=   60 NAOKFM=F Big=F
 Integral buffers will be    131072 words long.
 Raffenetti 2 integral format.
 Two-electron integral symmetry is turned on.
 Nuclear repulsion after empirical dispersion term =       51.5409910741 Hartrees.
 One-electron integrals computed using PRISM.
 NBasis=    37 RedAO= T EigKep=  3.37D-02  NBF=    27    10
 NBsUse=    37 1.00D-06 EigRej= -1.00D+00 NBFU=    27    10
 Initial guess from the checkpoint file:  "/tmp/Gau-13403.chk"
 B after Tr=    -0.000000   -0.000000   -0.000000
         Rot=    0.999983    0.000000    0.000000    0.005800 Ang=   0.66 deg.
 Initial guess orbital symmetries:
       Occupied  (A') (A') (A') (A') (A') (A") (A') (A') (A') (A')
                 (A") (A') (A")
       Virtual   (A') (A') (A') (A') (A') (A") (A') (A') (A") (A')
                 (A") (A') (A") (A') (A') (A') (A") (A') (A') (A")
                 (A') (A") (A') (A')
 ExpMin= 1.22D-01 ExpMax= 1.04D+04 ExpMxC= 1.57D+03 IAcc=2 IRadAn=         4 AccDes= 0.00D+00
 Harris functional with IExCor=  402 and IRadAn=       4 diagonalized for initial guess.
 HarFok:  IExCor=  402 AccDes= 0.00D+00 IRadAn=         4 IDoV= 1 UseB2=F ITyADJ=14
 ICtDFT=  3500011 ScaDFX=  1.000000  1.000000  1.000000  1.000000
 FoFCou: FMM=F IPFlag=           0 FMFlag=      100000 FMFlg1=           0
         NFxFlg=           0 DoJE=T BraDBF=F KetDBF=T FulRan=T
         wScrn=  0.000000 ICntrl=       500 IOpCl=  0 I1Cent=   200000004 NGrid=           0
         NMat0=    1 NMatS0=      1 NMatT0=    0 NMatD0=    1 NMtDS0=    0 NMtDT0=    0
 Petite list used in FoFCou.
 Keep R1 ints in memory in symmetry-blocked form, NReq=7153137.
 Requested convergence on RMS density matrix=1.00D-08 within 128 cycles.
 Requested convergence on MAX density matrix=1.00D-06.
 Requested convergence on             energy=1.00D-06.
 No special actions if energy rises.
 Integral accuracy reduced to 1.0D-05 until final iterations.
 Initial convergence to 1.0D-05 achieved.  Increase integral accuracy.
 SCF Done:  E(RB3LYP) =  -535.755443793     A.U. after   11 cycles
            NFock= 11  Conv=0.48D-08     -V/T= 2.0025
 Calling FoFJK, ICntrl=      2127 FMM=F ISym2X=1 I1Cent= 0 IOpClX= 0 NMat=1 NMatS=1 NMatT=0.
 ***** Axes restored to original set *****
 -------------------------------------------------------------------
 Center     Atomic                   Forces (Hartrees/Bohr)
 Number     Number              X              Y              Z
 -------------------------------------------------------------------
      1       17          -0.015308457   -0.011712022   -0.001425898
      2        8           0.030586890    0.022222222    0.004606984
      3        1          -0.015278433   -0.010510200   -0.003181086
 -------------------------------------------------------------------
 Cartesian Forces:  Max     0.030586890 RMS     0.015556981

 GradGradGradGradGradGradGradGradGradGradGradGradGradGradGradGradGradGrad
 Berny optimization.
 FormGI is forming the generalized inverse of G from B-inverse, IUseBI=4.
 Internal  Forces:  Max     0.034455120 RMS     0.021924017
 Search for a saddle point.
 Step number   2 out of a maximum of  100
 All quantities printed in internal units (Hartrees-Bohrs-Radians)
 Swapping is turned off.
 Update second derivatives using D2CorX and points    1    2
 The second derivative matrix:
                          R1        R2        A1
           R1           0.34092
           R2          -0.01241   0.44576
           A1           0.04485  -0.00789   0.17935
 ITU=  0  0
     Eigenvalues ---    0.16766   0.35048   0.44789
 Eigenvectors required to have negative eigenvalues:
                          A1        R1        R2
   1                    0.96824  -0.24950   0.01634
 RFO step:  Lambda0=1.755947698D-01 Lambda=-1.40263792D-04.
 Linear search not attempted -- option 19 set.
 Iteration  1 RMS(Cart)=  0.02058079 RMS(Int)=  0.00016212
 Iteration  2 RMS(Cart)=  0.00011810 RMS(Int)=  0.00000000
 Iteration  3 RMS(Cart)=  0.00000001 RMS(Int)=  0.00000000
 ClnCor:  largest displacement from symmetrization is 3.23D-15 for atom     3.
 Variable       Old X    -DE/DX   Delta X   Delta X   Delta X     New X
                                 (Linear)    (Quad)   (Total)
    R1        3.14851   0.01593   0.00000   0.01395   0.01395   3.16246
    R2        1.83391   0.00101   0.00000   0.00456   0.00456   1.83847
    A1        2.01084  -0.03446   0.00000   0.02416   0.02416   2.03501
         Item               Value     Threshold  Converged?
 Maximum Force            0.034455     0.000450     NO 
 RMS     Force            0.021924     0.000300     NO 
 Maximum Displacement     0.019354     0.001800     NO 
 RMS     Displacement     0.020566     0.001200     NO 
 Predicted change in Energy= 7.092803D-04
 GradGradGradGradGradGradGradGradGradGradGradGradGradGradGradGradGradGrad

                          Input orientation:                          
 ---------------------------------------------------------------------
 Center     Atomic      Atomic             Coordinates (Angstroms)
 Number     Number       Type             X           Y           Z
 ---------------------------------------------------------------------
      1         17           0       -3.136264    3.800395   -1.805601
      2          8           0       -1.831235    4.243899   -0.856490
      3          1           0       -1.723448    3.768511   -0.014542
 ---------------------------------------------------------------------
                    Distance matrix (angstroms):
                    1          2          3
     1  Cl   0.000000
     2  O    1.673501   0.000000
     3  H    2.281438   0.972877   0.000000
 Stoichiometry    ClHO
 Framework group  CS[SG(ClHO)]
 Deg. of freedom     3
 Full point group                 CS      NOp   2
 Largest Abelian subgroup         CS      NOp   2
 Largest concise Abelian subgroup C1      NOp   1
                         Standard orientation:                         
 ---------------------------------------------------------------------
 Center     Atomic      Atomic             Coordinates (Angstroms)
 Number     Number       Type             X           Y           Z
 ---------------------------------------------------------------------
      1         17           0        0.033459   -0.596042   -0.000000
      2          8           0        0.033459    1.077460    0.000000
      3          1           0       -0.836464    1.513032    0.000000
 ---------------------------------------------------------------------
 Rotational constants (GHZ):         731.4906652          15.1890203          14.8800440
 Standard basis: SVP (5D, 7F)
 There are    29 symmetry adapted cartesian basis functions of A'  symmetry.
 There are    10 symmetry adapted cartesian basis functions of A"  symmetry.
 There are    27 symmetry adapted basis functions of A'  symmetry.
 There are    10 symmetry adapted basis functions of A"  symmetry.
    37 basis functions,    69 primitive gaussians,    39 cartesian basis functions
    13 alpha electrons       13 beta electrons
       nuclear repulsion energy        51.2990813620 Hartrees.
 NAtoms=    3 NActive=    3 NUniq=    3 SFac= 1.00D+00 NAtFMM=   60 NAOKFM=F Big=F
 Integral buffers will be    131072 words long.
 Raffenetti 2 integral format.
 Two-electron integral symmetry is turned on.
 Nuclear repulsion after empirical dispersion term =       51.2974760985 Hartrees.
 One-electron integrals computed using PRISM.
 NBasis=    37 RedAO= T EigKep=  3.44D-02  NBF=    27    10
 NBsUse=    37 1.00D-06 EigRej= -1.00D+00 NBFU=    27    10
 Initial guess from the checkpoint file:  "/tmp/Gau-13403.chk"
 B after Tr=     0.000000    0.000000   -0.000000
         Rot=    1.000000    0.000000   -0.000000    0.000959 Ang=   0.11 deg.
 Initial guess orbital symmetries:
       Occupied  (A') (A') (A') (A') (A') (A") (A') (A') (A') (A')
                 (A") (A') (A")
       Virtual   (A') (A') (A') (A') (A') (A") (A') (A') (A") (A')
                 (A") (A') (A") (A') (A') (A') (A") (A') (A') (A")
                 (A') (A") (A') (A')
 Keep R1 ints in memory in symmetry-blocked form, NReq=7153137.
 Requested convergence on RMS density matrix=1.00D-08 within 128 cycles.
 Requested convergence on MAX density matrix=1.00D-06.
 Requested convergence on             energy=1.00D-06.
 No special actions if energy rises.
 SCF Done:  E(RB3LYP) =  -535.754744022     A.U. after    9 cycles
            NFock=  9  Conv=0.21D-08     -V/T= 2.0025
 Calling FoFJK, ICntrl=      2127 FMM=F ISym2X=1 I1Cent= 0 IOpClX= 0 NMat=1 NMatS=1 NMatT=0.
 ***** Axes restored to original set *****
 -------------------------------------------------------------------
 Center     Atomic                   Forces (Hartrees/Bohr)
 Number     Number              X              Y              Z
 -------------------------------------------------------------------
      1       17          -0.011838807   -0.011265841    0.002190509
      2        8           0.029253378    0.022157012    0.003058585
      3        1          -0.017414571   -0.010891172   -0.005249094
 -------------------------------------------------------------------
 Cartesian Forces:  Max     0.029253378 RMS     0.015192692

 GradGradGradGradGradGradGradGradGradGradGradGradGradGradGradGradGradGrad
 Berny optimization.
 FormGI is forming the generalized inverse of G from B-inverse, IUseBI=4.
 Internal  Forces:  Max     0.038916965 RMS     0.023354644
 Search for a saddle point.
 Step number   3 out of a maximum of  100
 All quantities printed in internal units (Hartrees-Bohrs-Radians)
 Swapping is turned off.
 Update second derivatives using D2CorX and points    1    2    3
 The second derivative matrix:
                          R1        R2        A1
           R1           0.31319
           R2           0.00041   0.44269
           A1           0.02426   0.00542   0.16964
 ITU=  0  0  0
     Eigenvalues ---    0.16555   0.31717   0.44280
 Eigenvectors required to have negative eigenvalues:
                          A1        R1        R2
   1                    0.98659  -0.16209  -0.01907
 RFO step:  Lambda0=1.747755666D-01 Lambda=-7.28889911D-05.
 Linear search not attempted -- option 19 set.
 Iteration  1 RMS(Cart)=  0.01381217 RMS(Int)=  0.00007158
 Iteration  2 RMS(Cart)=  0.00006057 RMS(Int)=  0.00000000
 Iteration  3 RMS(Cart)=  0.00000000 RMS(Int)=  0.00000000
 ClnCor:  largest displacement from symmetrization is 5.23D-15 for atom     3.
 Variable       Old X    -DE/DX   Delta X   Delta X   Delta X     New X
                                 (Linear)    (Quad)   (Total)
    R1        3.16246   0.01098   0.00000   0.01168   0.01168   3.17413
    R2        1.83847  -0.00115   0.00000  -0.00465  -0.00465   1.83382
    A1        2.03501  -0.03892   0.00000   0.01695   0.01695   2.05196
         Item               Value     Threshold  Converged?
 Maximum Force            0.038917     0.000450     NO 
 RMS     Force            0.023355     0.000300     NO 
 Maximum Displacement     0.012995     0.001800     NO 
 RMS     Displacement     0.013787     0.001200     NO 
 Predicted change in Energy= 5.811729D-04
 GradGradGradGradGradGradGradGradGradGradGradGradGradGradGradGradGradGrad

                          Input orientation:                          
 ---------------------------------------------------------------------
 Center     Atomic      Atomic             Coordinates (Angstroms)
 Number     Number       Type             X           Y           Z
 ---------------------------------------------------------------------
      1         17           0       -3.140492    3.801508   -1.812477
      2          8           0       -1.833338    4.239841   -0.853033
      3          1           0       -1.717118    3.771457   -0.011122
 ---------------------------------------------------------------------
                    Distance matrix (angstroms):
                    1          2          3
     1  Cl   0.000000
     2  O    1.679680   0.000000
     3  H    2.296035   0.970414   0.000000
 Stoichiometry    ClHO
 Framework group  CS[SG(ClHO)]
 Deg. of freedom     3
 Full point group                 CS      NOp   2
 Largest Abelian subgroup         CS      NOp   2
 Largest concise Abelian subgroup C1      NOp   1
                         Standard orientation:                         
 ---------------------------------------------------------------------
 Center     Atomic      Atomic             Coordinates (Angstroms)
 Number     Number       Type             X           Y           Z
 ---------------------------------------------------------------------
      1         17           0        0.033086   -0.598701   -0.000000
      2          8           0        0.033086    1.080978    0.000000
      3          1           0       -0.827145    1.530097    0.000000
 ---------------------------------------------------------------------
 Rotational constants (GHZ):         748.8855288          15.0609968          14.7640734
 Standard basis: SVP (5D, 7F)
 There are    29 symmetry adapted cartesian basis functions of A'  symmetry.
 There are    10 symmetry adapted cartesian basis functions of A"  symmetry.
 There are    27 symmetry adapted basis functions of A'  symmetry.
 There are    10 symmetry adapted basis functions of A"  symmetry.
    37 basis functions,    69 primitive gaussians,    39 cartesian basis functions
    13 alpha electrons       13 beta electrons
       nuclear repulsion energy        51.1268736117 Hartrees.
 NAtoms=    3 NActive=    3 NUniq=    3 SFac= 1.00D+00 NAtFMM=   60 NAOKFM=F Big=F
 Integral buffers will be    131072 words long.
 Raffenetti 2 integral format.
 Two-electron integral symmetry is turned on.
 Nuclear repulsion after empirical dispersion term =       51.1252699565 Hartrees.
 One-electron integrals computed using PRISM.
 NBasis=    37 RedAO= T EigKep=  3.50D-02  NBF=    27    10
 NBsUse=    37 1.00D-06 EigRej= -1.00D+00 NBFU=    27    10
 Initial guess from the checkpoint file:  "/tmp/Gau-13403.chk"
 B after Tr=    -0.000000    0.000000    0.000000
         Rot=    1.000000   -0.000000    0.000000    0.000801 Ang=   0.09 deg.
 Initial guess orbital symmetries:
       Occupied  (A') (A') (A') (A') (A') (A") (A') (A') (A') (A')
                 (A") (A') (A")
       Virtual   (A') (A') (A') (A') (A') (A") (A') (A') (A") (A')
                 (A") (A') (A") (A') (A') (A') (A") (A') (A') (A")
                 (A') (A") (A') (A')
 Keep R1 ints in memory in symmetry-blocked form, NReq=7153137.
 Requested convergence on RMS density matrix=1.00D-08 within 128 cycles.
 Requested convergence on MAX density matrix=1.00D-06.
 Requested convergence on             energy=1.00D-06.
 No special actions if energy rises.
 SCF Done:  E(RB3LYP) =  -535.754162609     A.U. after    8 cycles
            NFock=  8  Conv=0.93D-08     -V/T= 2.0025
 Calling FoFJK, ICntrl=      2127 FMM=F ISym2X=1 I1Cent= 0 IOpClX= 0 NMat=1 NMatS=1 NMatT=0.
 ***** Axes restored to original set *****
 -------------------------------------------------------------------
 Center     Atomic                   Forces (Hartrees/Bohr)
 Number     Number              X              Y              Z
 -------------------------------------------------------------------
      1       17          -0.009088208   -0.010853648    0.004970244
      2        8           0.027611021    0.024007512   -0.001727787
      3        1          -0.018522813   -0.013153864   -0.003242457
 -------------------------------------------------------------------
 Cartesian Forces:  Max     0.027611021 RMS     0.015251401

 GradGradGradGradGradGradGradGradGradGradGradGradGradGradGradGradGradGrad
 Berny optimization.
 FormGI is forming the generalized inverse of G from B-inverse, IUseBI=4.
 Internal  Forces:  Max     0.042012929 RMS     0.024608611
 Search for a saddle point.
 Step number   4 out of a maximum of  100
 All quantities printed in internal units (Hartrees-Bohrs-Radians)
 Swapping is turned off.
 Update second derivatives using D2CorX and points    1    2    3    4
 The second derivative matrix:
                          R1        R2        A1
           R1           0.30248
           R2          -0.01442   0.45320
           A1           0.01834  -0.01125   0.16689
 ITU=  0  0  0  0
     Eigenvalues ---    0.16416   0.30326   0.45515
 Eigenvectors required to have negative eigenvalues:
                          A1        R1        R2
   1                    0.99124  -0.12809   0.03219
 RFO step:  Lambda0=1.745099025D-01 Lambda=-2.56064358D-05.
 Linear search not attempted -- option 19 set.
 Iteration  1 RMS(Cart)=  0.00840869 RMS(Int)=  0.00002733
 Iteration  2 RMS(Cart)=  0.00002106 RMS(Int)=  0.00000000
 Iteration  3 RMS(Cart)=  0.00000000 RMS(Int)=  0.00000000
 ClnCor:  largest displacement from symmetrization is 1.04D-15 for atom     3.
 Variable       Old X    -DE/DX   Delta X   Delta X   Delta X     New X
                                 (Linear)    (Quad)   (Total)
    R1        3.17413   0.00707   0.00000   0.00455   0.00455   3.17869
    R2        1.83382   0.00132   0.00000   0.00639   0.00639   1.84020
    A1        2.05196  -0.04201   0.00000   0.00878   0.00878   2.06074
         Item               Value     Threshold  Converged?
 Maximum Force            0.042013     0.000450     NO 
 RMS     Force            0.024609     0.000300     NO 
 Maximum Displacement     0.007688     0.001800     NO 
 RMS     Displacement     0.008414     0.001200     NO 
 Predicted change in Energy= 3.466936D-04
 GradGradGradGradGradGradGradGradGradGradGradGradGradGradGradGradGradGrad

                          Input orientation:                          
 ---------------------------------------------------------------------
 Center     Atomic      Atomic             Coordinates (Angstroms)
 Number     Number       Type             X           Y           Z
 ---------------------------------------------------------------------
      1         17           0       -3.142922    3.802183   -1.816482
      2          8           0       -1.834918    4.238576   -0.853096
      3          1           0       -1.713108    3.772047   -0.007054
 ---------------------------------------------------------------------
                    Distance matrix (angstroms):
                    1          2          3
     1  Cl   0.000000
     2  O    1.682089   0.000000
     3  H    2.306362   0.973793   0.000000
 Stoichiometry    ClHO
 Framework group  CS[SG(ClHO)]
 Deg. of freedom     3
 Full point group                 CS      NOp   2
 Largest Abelian subgroup         CS      NOp   2
 Largest concise Abelian subgroup C1      NOp   1
                         Standard orientation:                         
 ---------------------------------------------------------------------
 Center     Atomic      Atomic             Coordinates (Angstroms)
 Number     Number       Type             X           Y           Z
 ---------------------------------------------------------------------
      1         17           0        0.033048   -0.599886    0.000000
      2          8           0        0.033048    1.082203    0.000000
      3          1           0       -0.826189    1.540445   -0.000000
 ---------------------------------------------------------------------
 Rotational constants (GHZ):         751.2259961          15.0057480          14.7118780
 Standard basis: SVP (5D, 7F)
 There are    29 symmetry adapted cartesian basis functions of A'  symmetry.
 There are    10 symmetry adapted cartesian basis functions of A"  symmetry.
 There are    27 symmetry adapted basis functions of A'  symmetry.
 There are    10 symmetry adapted basis functions of A"  symmetry.
    37 basis functions,    69 primitive gaussians,    39 cartesian basis functions
    13 alpha electrons       13 beta electrons
       nuclear repulsion energy        51.0328166808 Hartrees.
 NAtoms=    3 NActive=    3 NUniq=    3 SFac= 1.00D+00 NAtFMM=   60 NAOKFM=F Big=F
 Integral buffers will be    131072 words long.
 Raffenetti 2 integral format.
 Two-electron integral symmetry is turned on.
 Nuclear repulsion after empirical dispersion term =       51.0312141019 Hartrees.
 One-electron integrals computed using PRISM.
 NBasis=    37 RedAO= T EigKep=  3.52D-02  NBF=    27    10
 NBsUse=    37 1.00D-06 EigRej= -1.00D+00 NBFU=    27    10
 Initial guess from the checkpoint file:  "/tmp/Gau-13403.chk"
 B after Tr=     0.000000    0.000000    0.000000
         Rot=    1.000000   -0.000000    0.000000    0.000281 Ang=   0.03 deg.
 Initial guess orbital symmetries:
       Occupied  (A') (A') (A') (A') (A') (A") (A') (A') (A') (A')
                 (A") (A') (A")
       Virtual   (A') (A') (A') (A') (A') (A") (A') (A') (A") (A')
                 (A") (A') (A") (A') (A') (A') (A") (A') (A') (A")
                 (A') (A") (A') (A')
 Keep R1 ints in memory in symmetry-blocked form, NReq=7153137.
 Requested convergence on RMS density matrix=1.00D-08 within 128 cycles.
 Requested convergence on MAX density matrix=1.00D-06.
 Requested convergence on             energy=1.00D-06.
 No special actions if energy rises.
 SCF Done:  E(RB3LYP) =  -535.753814209     A.U. after    8 cycles
            NFock=  8  Conv=0.78D-08     -V/T= 2.0025
 Calling FoFJK, ICntrl=      2127 FMM=F ISym2X=1 I1Cent= 0 IOpClX= 0 NMat=1 NMatS=1 NMatT=0.
 ***** Axes restored to original set *****
 -------------------------------------------------------------------
 Center     Atomic                   Forces (Hartrees/Bohr)
 Number     Number              X              Y              Z
 -------------------------------------------------------------------
      1       17          -0.008088959   -0.010781445    0.006095711
      2        8           0.027589414    0.022893550   -0.000093234
      3        1          -0.019500455   -0.012112105   -0.006002477
 -------------------------------------------------------------------
 Cartesian Forces:  Max     0.027589414 RMS     0.015155227

 GradGradGradGradGradGradGradGradGradGradGradGradGradGradGradGradGradGrad
 Berny optimization.
 FormGI is forming the generalized inverse of G from B-inverse, IUseBI=4.
 Internal  Forces:  Max     0.043529668 RMS     0.025361237
 Search for a saddle point.
 Step number   5 out of a maximum of  100
 All quantities printed in internal units (Hartrees-Bohrs-Radians)
 Swapping is turned off.
 Update second derivatives using D2CorX and points    2    3    4    5
 The second derivative matrix:
                          R1        R2        A1
           R1           0.29926
           R2          -0.00323   0.48744
           A1           0.01459   0.00812   0.15931
 ITU=  0  0  0  0
     Eigenvalues ---    0.15759   0.30073   0.48768
 Eigenvectors required to have negative eigenvalues:
                          A1        R1        R2
   1                    0.99435  -0.10300  -0.02549
 RFO step:  Lambda0=1.689539533D-01 Lambda=-2.18672940D-05.
 Linear search not attempted -- option 19 set.
 Iteration  1 RMS(Cart)=  0.00517920 RMS(Int)=  0.00001450
 Iteration  2 RMS(Cart)=  0.00001624 RMS(Int)=  0.00000000
 Iteration  3 RMS(Cart)=  0.00000000 RMS(Int)=  0.00000000
 ClnCor:  largest displacement from symmetrization is 1.99D-15 for atom     2.
 Variable       Old X    -DE/DX   Delta X   Delta X   Delta X     New X
                                 (Linear)    (Quad)   (Total)
    R1        3.17869   0.00560   0.00000   0.00282   0.00282   3.18151
    R2        1.84020  -0.00185   0.00000  -0.00625  -0.00625   1.83395
    A1        2.06074  -0.04353   0.00000   0.00720   0.00720   2.06794
         Item               Value     Threshold  Converged?
 Maximum Force            0.043530     0.000450     NO 
 RMS     Force            0.025361     0.000300     NO 
 Maximum Displacement     0.004256     0.001800     NO 
 RMS     Displacement     0.005171     0.001200     NO 
 Predicted change in Energy= 3.010552D-04
 GradGradGradGradGradGradGradGradGradGradGradGradGradGradGradGradGradGrad

                          Input orientation:                          
 ---------------------------------------------------------------------
 Center     Atomic      Atomic             Coordinates (Angstroms)
 Number     Number       Type             X           Y           Z
 ---------------------------------------------------------------------
      1         17           0       -3.143864    3.802743   -1.818479
      2          8           0       -1.835986    4.236324   -0.851055
      3          1           0       -1.711099    3.773739   -0.007098
 ---------------------------------------------------------------------
                    Distance matrix (angstroms):
                    1          2          3
     1  Cl   0.000000
     2  O    1.683581   0.000000
     3  H    2.309709   0.970486   0.000000
 Stoichiometry    ClHO
 Framework group  CS[SG(ClHO)]
 Deg. of freedom     3
 Full point group                 CS      NOp   2
 Largest Abelian subgroup         CS      NOp   2
 Largest concise Abelian subgroup C1      NOp   1
                         Standard orientation:                         
 ---------------------------------------------------------------------
 Center     Atomic      Atomic             Coordinates (Angstroms)
 Number     Number       Type             X           Y           Z
 ---------------------------------------------------------------------
      1         17           0        0.032808   -0.600580   -0.000000
      2          8           0        0.032808    1.083001    0.000000
      3          1           0       -0.820199    1.545844    0.000000
 ---------------------------------------------------------------------
 Rotational constants (GHZ):         762.5267366          14.9735158          14.6851478
 Standard basis: SVP (5D, 7F)
 There are    29 symmetry adapted cartesian basis functions of A'  symmetry.
 There are    10 symmetry adapted cartesian basis functions of A"  symmetry.
 There are    27 symmetry adapted basis functions of A'  symmetry.
 There are    10 symmetry adapted basis functions of A"  symmetry.
    37 basis functions,    69 primitive gaussians,    39 cartesian basis functions
    13 alpha electrons       13 beta electrons
       nuclear repulsion energy        51.0040601458 Hartrees.
 NAtoms=    3 NActive=    3 NUniq=    3 SFac= 1.00D+00 NAtFMM=   60 NAOKFM=F Big=F
 Integral buffers will be    131072 words long.
 Raffenetti 2 integral format.
 Two-electron integral symmetry is turned on.
 Nuclear repulsion after empirical dispersion term =       51.0024579841 Hartrees.
 One-electron integrals computed using PRISM.
 NBasis=    37 RedAO= T EigKep=  3.54D-02  NBF=    27    10
 NBsUse=    37 1.00D-06 EigRej= -1.00D+00 NBFU=    27    10
 Initial guess from the checkpoint file:  "/tmp/Gau-13403.chk"
 B after Tr=    -0.000000   -0.000000   -0.000000
         Rot=    1.000000   -0.000000    0.000000    0.000383 Ang=   0.04 deg.
 Initial guess orbital symmetries:
       Occupied  (A') (A') (A') (A') (A') (A") (A') (A') (A') (A')
                 (A") (A') (A")
       Virtual   (A') (A') (A') (A') (A') (A") (A') (A') (A") (A')
                 (A") (A') (A") (A') (A') (A') (A") (A') (A') (A")
                 (A') (A") (A') (A')
 Keep R1 ints in memory in symmetry-blocked form, NReq=7153137.
 Requested convergence on RMS density matrix=1.00D-08 within 128 cycles.
 Requested convergence on MAX density matrix=1.00D-06.
 Requested convergence on             energy=1.00D-06.
 No special actions if energy rises.
 SCF Done:  E(RB3LYP) =  -535.753512321     A.U. after    8 cycles
            NFock=  8  Conv=0.49D-08     -V/T= 2.0025
 Calling FoFJK, ICntrl=      2127 FMM=F ISym2X=1 I1Cent= 0 IOpClX= 0 NMat=1 NMatS=1 NMatT=0.
 ***** Axes restored to original set *****
 -------------------------------------------------------------------
 Center     Atomic                   Forces (Hartrees/Bohr)
 Number     Number              X              Y              Z
 -------------------------------------------------------------------
      1       17          -0.007374342   -0.010747764    0.006927369
      2        8           0.027050801    0.024824490   -0.003637470
      3        1          -0.019676459   -0.014076726   -0.003289899
 -------------------------------------------------------------------
 Cartesian Forces:  Max     0.027050801 RMS     0.015546550

 GradGradGradGradGradGradGradGradGradGradGradGradGradGradGradGradGradGrad
 Berny optimization.
 FormGI is forming the generalized inverse of G from B-inverse, IUseBI=4.
 Internal  Forces:  Max     0.044711879 RMS     0.025956891
 Search for a saddle point.
 Step number   6 out of a maximum of  100
 All quantities printed in internal units (Hartrees-Bohrs-Radians)
 Swapping is turned off.
 Second derivative matrix not updated -- analytic derivatives used.
 The second derivative matrix:
                          R1        R2        A1
           R1           0.29926
           R2          -0.00323   0.48744
           A1           0.01459   0.00812   0.15931
 ITU=  0  0  0  0
     Eigenvalues ---    0.15759   0.30073   0.48768
 Eigenvectors required to have negative eigenvalues:
                          A1        R1        R2
   1                    0.99435  -0.10300  -0.02549
 RFO step:  Lambda0=1.695159292D-01 Lambda=-1.02758792D-07.
 Linear search not attempted -- option 19 set.
 Iteration  1 RMS(Cart)=  0.00034637 RMS(Int)=  0.00000009
 Iteration  2 RMS(Cart)=  0.00000006 RMS(Int)=  0.00000000
 ClnCor:  largest displacement from symmetrization is 9.93D-16 for atom     1.
 Variable       Old X    -DE/DX   Delta X   Delta X   Delta X     New X
                                 (Linear)    (Quad)   (Total)
    R1        3.18151   0.00452   0.00000  -0.00043  -0.00043   3.18108
    R2        1.83395   0.00132   0.00000   0.00033   0.00033   1.83429
    A1        2.06794  -0.04471   0.00000   0.00048   0.00048   2.06842
         Item               Value     Threshold  Converged?
 Maximum Force            0.044712     0.000450     NO 
 RMS     Force            0.025957     0.000300     NO 
 Maximum Displacement     0.000347     0.001800     YES
 RMS     Displacement     0.000346     0.001200     YES
 Predicted change in Energy= 2.308614D-05
 GradGradGradGradGradGradGradGradGradGradGradGradGradGradGradGradGradGrad

                          Input orientation:                          
 ---------------------------------------------------------------------
 Center     Atomic      Atomic             Coordinates (Angstroms)
 Number     Number       Type             X           Y           Z
 ---------------------------------------------------------------------
      1         17           0       -3.143828    3.802809   -1.818535
      2          8           0       -1.836169    4.236228   -0.851139
      3          1           0       -1.710951    3.773768   -0.006959
 ---------------------------------------------------------------------
                    Distance matrix (angstroms):
                    1          2          3
     1  Cl   0.000000
     2  O    1.683353   0.000000
     3  H    2.309933   0.970664   0.000000
 Stoichiometry    ClHO
 Framework group  CS[SG(ClHO)]
 Deg. of freedom     3
 Full point group                 CS      NOp   2
 Largest Abelian subgroup         CS      NOp   2
 Largest concise Abelian subgroup C1      NOp   1
                         Standard orientation:                         
 ---------------------------------------------------------------------
 Center     Atomic      Atomic             Coordinates (Angstroms)
 Number     Number       Type             X           Y           Z
 ---------------------------------------------------------------------
      1         17           0        0.032805   -0.600520    0.000000
      2          8           0        0.032805    1.082833   -0.000000
      3          1           0       -0.820134    1.546171   -0.000000
 ---------------------------------------------------------------------
 Rotational constants (GHZ):         762.6880683          14.9767588          14.6883269
 Standard basis: SVP (5D, 7F)
 There are    29 symmetry adapted cartesian basis functions of A'  symmetry.
 There are    10 symmetry adapted cartesian basis functions of A"  symmetry.
 There are    27 symmetry adapted basis functions of A'  symmetry.
 There are    10 symmetry adapted basis functions of A"  symmetry.
    37 basis functions,    69 primitive gaussians,    39 cartesian basis functions
    13 alpha electrons       13 beta electrons
       nuclear repulsion energy        51.0086727770 Hartrees.
 NAtoms=    3 NActive=    3 NUniq=    3 SFac= 1.00D+00 NAtFMM=   60 NAOKFM=F Big=F
 Integral buffers will be    131072 words long.
 Raffenetti 2 integral format.
 Two-electron integral symmetry is turned on.
 Nuclear repulsion after empirical dispersion term =       51.0070706322 Hartrees.
 One-electron integrals computed using PRISM.
 NBasis=    37 RedAO= T EigKep=  3.54D-02  NBF=    27    10
 NBsUse=    37 1.00D-06 EigRej= -1.00D+00 NBFU=    27    10
 Initial guess from the checkpoint file:  "/tmp/Gau-13403.chk"
 B after Tr=     0.000000    0.000000    0.000000
         Rot=    1.000000    0.000000   -0.000000    0.000010 Ang=   0.00 deg.
 Initial guess orbital symmetries:
       Occupied  (A') (A') (A') (A') (A') (A") (A') (A') (A') (A')
                 (A") (A') (A")
       Virtual   (A') (A') (A') (A') (A') (A") (A') (A') (A") (A')
                 (A") (A') (A") (A') (A') (A') (A") (A') (A') (A")
                 (A') (A") (A') (A')
 Keep R1 ints in memory in symmetry-blocked form, NReq=7153137.
 Requested convergence on RMS density matrix=1.00D-08 within 128 cycles.
 Requested convergence on MAX density matrix=1.00D-06.
 Requested convergence on             energy=1.00D-06.
 No special actions if energy rises.
 SCF Done:  E(RB3LYP) =  -535.753489243     A.U. after    7 cycles
            NFock=  7  Conv=0.15D-08     -V/T= 2.0025
 Calling FoFJK, ICntrl=      2127 FMM=F ISym2X=1 I1Cent= 0 IOpClX= 0 NMat=1 NMatS=1 NMatT=0.
 ***** Axes restored to original set *****
 -------------------------------------------------------------------
 Center     Atomic                   Forces (Hartrees/Bohr)
 Number     Number              X              Y              Z
 -------------------------------------------------------------------
      1       17          -0.007455923   -0.010786068    0.006883814
      2        8           0.027174590    0.024797634   -0.003444656
      3        1          -0.019718667   -0.014011566   -0.003439158
 -------------------------------------------------------------------
 Cartesian Forces:  Max     0.027174590 RMS     0.015568991

 GradGradGradGradGradGradGradGradGradGradGradGradGradGradGradGradGradGrad
 Berny optimization.
 FormGI is forming the generalized inverse of G from B-inverse, IUseBI=4.
 Internal  Forces:  Max     0.044767757 RMS     0.025991883
 Search for a saddle point.
 Step number   7 out of a maximum of  100
 All quantities printed in internal units (Hartrees-Bohrs-Radians)
 Swapping is turned off.
 Update second derivatives using D2CorX and points    4    5    7
 The second derivative matrix:
                          R1        R2        A1
           R1           0.30769
           R2          -0.01246   0.49759
           A1           0.02266  -0.00256   0.15209
 ITU=  0  0  0  0
     Eigenvalues ---    0.14886   0.31006   0.49845
 Eigenvectors required to have negative eigenvalues:
                          A1        R1        R2
   1                    0.99000  -0.14107   0.00222
 RFO step:  Lambda0=1.613893824D-01 Lambda=-1.25808037D-05.
 Linear search not attempted -- option 19 set.
 Iteration  1 RMS(Cart)=  0.00363292 RMS(Int)=  0.00000941
 Iteration  2 RMS(Cart)=  0.00000688 RMS(Int)=  0.00000000
 Iteration  3 RMS(Cart)=  0.00000000 RMS(Int)=  0.00000000
 ClnCor:  largest displacement from symmetrization is 2.54D-15 for atom     3.
 Variable       Old X    -DE/DX   Delta X   Delta X   Delta X     New X
                                 (Linear)    (Quad)   (Total)
    R1        3.18108   0.00461   0.00000  -0.00632  -0.00632   3.17476
    R2        1.83429   0.00114   0.00000   0.00237   0.00237   1.83665
    A1        2.06842  -0.04477   0.00000   0.00516   0.00516   2.07358
         Item               Value     Threshold  Converged?
 Maximum Force            0.044768     0.000450     NO 
 RMS     Force            0.025992     0.000300     NO 
 Maximum Displacement     0.004103     0.001800     NO 
 RMS     Displacement     0.003633     0.001200     NO 
 Predicted change in Energy= 2.664928D-04
 GradGradGradGradGradGradGradGradGradGradGradGradGradGradGradGradGradGrad

                          Input orientation:                          
 ---------------------------------------------------------------------
 Center     Atomic      Atomic             Coordinates (Angstroms)
 Number     Number       Type             X           Y           Z
 ---------------------------------------------------------------------
      1         17           0       -3.142940    3.803598   -1.818616
      2          8           0       -1.838340    4.235013   -0.852006
      3          1           0       -1.709667    3.774194   -0.006010
 ---------------------------------------------------------------------
                    Distance matrix (angstroms):
                    1          2          3
     1  Cl   0.000000
     2  O    1.680010   0.000000
     3  H    2.310990   0.971915   0.000000
 Stoichiometry    ClHO
 Framework group  CS[SG(ClHO)]
 Deg. of freedom     3
 Full point group                 CS      NOp   2
 Largest Abelian subgroup         CS      NOp   2
 Largest concise Abelian subgroup C1      NOp   1
                         Standard orientation:                         
 ---------------------------------------------------------------------
 Center     Atomic      Atomic             Coordinates (Angstroms)
 Number     Number       Type             X           Y           Z
 ---------------------------------------------------------------------
      1         17           0        0.032755   -0.599555    0.000000
      2          8           0        0.032755    1.080455    0.000000
      3          1           0       -0.818878    1.548792    0.000000
 ---------------------------------------------------------------------
 Rotational constants (GHZ):         765.4700089          15.0277703          14.7384243
 Standard basis: SVP (5D, 7F)
 There are    29 symmetry adapted cartesian basis functions of A'  symmetry.
 There are    10 symmetry adapted cartesian basis functions of A"  symmetry.
 There are    27 symmetry adapted basis functions of A'  symmetry.
 There are    10 symmetry adapted basis functions of A"  symmetry.
    37 basis functions,    69 primitive gaussians,    39 cartesian basis functions
    13 alpha electrons       13 beta electrons
       nuclear repulsion energy        51.0863563030 Hartrees.
 NAtoms=    3 NActive=    3 NUniq=    3 SFac= 1.00D+00 NAtFMM=   60 NAOKFM=F Big=F
 Integral buffers will be    131072 words long.
 Raffenetti 2 integral format.
 Two-electron integral symmetry is turned on.
 Nuclear repulsion after empirical dispersion term =       51.0847541865 Hartrees.
 One-electron integrals computed using PRISM.
 NBasis=    37 RedAO= T EigKep=  3.52D-02  NBF=    27    10
 NBsUse=    37 1.00D-06 EigRej= -1.00D+00 NBFU=    27    10
 Initial guess from the checkpoint file:  "/tmp/Gau-13403.chk"
 B after Tr=    -0.000000   -0.000000    0.000000
         Rot=    1.000000   -0.000000    0.000000    0.000115 Ang=   0.01 deg.
 Initial guess orbital symmetries:
       Occupied  (A') (A') (A') (A') (A') (A") (A') (A') (A') (A')
                 (A") (A') (A")
       Virtual   (A') (A') (A') (A') (A') (A") (A') (A') (A") (A')
                 (A") (A') (A") (A') (A') (A') (A") (A') (A') (A")
                 (A') (A") (A') (A')
 Keep R1 ints in memory in symmetry-blocked form, NReq=7153137.
 Requested convergence on RMS density matrix=1.00D-08 within 128 cycles.
 Requested convergence on MAX density matrix=1.00D-06.
 Requested convergence on             energy=1.00D-06.
 No special actions if energy rises.
 SCF Done:  E(RB3LYP) =  -535.753224176     A.U. after    7 cycles
            NFock=  7  Conv=0.89D-08     -V/T= 2.0025
 Calling FoFJK, ICntrl=      2127 FMM=F ISym2X=1 I1Cent= 0 IOpClX= 0 NMat=1 NMatS=1 NMatT=0.
 ***** Axes restored to original set *****
 -------------------------------------------------------------------
 Center     Atomic                   Forces (Hartrees/Bohr)
 Number     Number              X              Y              Z
 -------------------------------------------------------------------
      1       17          -0.008669088   -0.011300047    0.006153166
      2        8           0.028749369    0.024894607   -0.001645886
      3        1          -0.020080281   -0.013594561   -0.004507280
 -------------------------------------------------------------------
 Cartesian Forces:  Max     0.028749369 RMS     0.015979249

 GradGradGradGradGradGradGradGradGradGradGradGradGradGradGradGradGradGrad
 Berny optimization.
 FormGI is forming the generalized inverse of G from B-inverse, IUseBI=4.
 Internal  Forces:  Max     0.045299077 RMS     0.026389114
 Search for a saddle point.
 Step number   8 out of a maximum of  100
 All quantities printed in internal units (Hartrees-Bohrs-Radians)
 Swapping is turned off.
 Update second derivatives using D2CorX and points    5    6    7    8
 The second derivative matrix:
                          R1        R2        A1
           R1           0.26312
           R2          -0.01605   0.49749
           A1           0.04261  -0.00023   0.15520
 ITU=  0  0  0  0
     Eigenvalues ---    0.14033   0.27686   0.49861
 Eigenvectors required to have negative eigenvalues:
                          A1        R1        R2
   1                    0.94405  -0.32950  -0.01421
 RFO step:  Lambda0=1.534006190D-01 Lambda=-3.05807194D-04.
 Linear search not attempted -- option 19 set.
 Iteration  1 RMS(Cart)=  0.01878662 RMS(Int)=  0.00014866
 Iteration  2 RMS(Cart)=  0.00014031 RMS(Int)=  0.00000001
 Iteration  3 RMS(Cart)=  0.00000001 RMS(Int)=  0.00000000
 ClnCor:  largest displacement from symmetrization is 3.13D-15 for atom     3.
 Variable       Old X    -DE/DX   Delta X   Delta X   Delta X     New X
                                 (Linear)    (Quad)   (Total)
    R1        3.17476   0.00609   0.00000  -0.04220  -0.04220   3.13256
    R2        1.83665  -0.00014   0.00000  -0.00304  -0.00304   1.83362
    A1        2.07358  -0.04530   0.00000   0.02041   0.02041   2.09399
         Item               Value     Threshold  Converged?
 Maximum Force            0.045299     0.000450     NO 
 RMS     Force            0.026389     0.000300     NO 
 Maximum Displacement     0.020050     0.001800     NO 
 RMS     Displacement     0.018803     0.001200     NO 
 Predicted change in Energy= 1.411407D-03
 GradGradGradGradGradGradGradGradGradGradGradGradGradGradGradGradGradGrad

                          Input orientation:                          
 ---------------------------------------------------------------------
 Center     Atomic      Atomic             Coordinates (Angstroms)
 Number     Number       Type             X           Y           Z
 ---------------------------------------------------------------------
      1         17           0       -3.134268    3.807431   -1.813630
      2          8           0       -1.848951    4.228336   -0.855142
      3          1           0       -1.707729    3.777039   -0.007860
 ---------------------------------------------------------------------
                    Distance matrix (angstroms):
                    1          2          3
     1  Cl   0.000000
     2  O    1.657679   0.000000
     3  H    2.301465   0.970309   0.000000
 Stoichiometry    ClHO
 Framework group  CS[SG(ClHO)]
 Deg. of freedom     3
 Full point group                 CS      NOp   2
 Largest Abelian subgroup         CS      NOp   2
 Largest concise Abelian subgroup C1      NOp   1
                         Standard orientation:                         
 ---------------------------------------------------------------------
 Center     Atomic      Atomic             Coordinates (Angstroms)
 Number     Number       Type             X           Y           Z
 ---------------------------------------------------------------------
      1         17           0        0.032327   -0.592459    0.000000
      2          8           0        0.032327    1.065220   -0.000000
      3          1           0       -0.808180    1.550037   -0.000000
 ---------------------------------------------------------------------
 Rotational constants (GHZ):         787.6415168          15.4006826          15.1053295
 Standard basis: SVP (5D, 7F)
 There are    29 symmetry adapted cartesian basis functions of A'  symmetry.
 There are    10 symmetry adapted cartesian basis functions of A"  symmetry.
 There are    27 symmetry adapted basis functions of A'  symmetry.
 There are    10 symmetry adapted basis functions of A"  symmetry.
    37 basis functions,    69 primitive gaussians,    39 cartesian basis functions
    13 alpha electrons       13 beta electrons
       nuclear repulsion energy        51.6867524899 Hartrees.
 NAtoms=    3 NActive=    3 NUniq=    3 SFac= 1.00D+00 NAtFMM=   60 NAOKFM=F Big=F
 Integral buffers will be    131072 words long.
 Raffenetti 2 integral format.
 Two-electron integral symmetry is turned on.
 Nuclear repulsion after empirical dispersion term =       51.6851489450 Hartrees.
 One-electron integrals computed using PRISM.
 NBasis=    37 RedAO= T EigKep=  3.39D-02  NBF=    27    10
 NBsUse=    37 1.00D-06 EigRej= -1.00D+00 NBFU=    27    10
 Initial guess from the checkpoint file:  "/tmp/Gau-13403.chk"
 B after Tr=     0.000000    0.000000    0.000000
         Rot=    1.000000   -0.000000    0.000000    0.000499 Ang=   0.06 deg.
 Initial guess orbital symmetries:
       Occupied  (A') (A') (A') (A') (A') (A") (A') (A') (A') (A')
                 (A") (A') (A")
       Virtual   (A') (A') (A') (A') (A') (A") (A') (A') (A") (A')
                 (A") (A') (A") (A') (A') (A') (A") (A') (A') (A")
                 (A') (A") (A') (A')
 ExpMin= 1.22D-01 ExpMax= 1.04D+04 ExpMxC= 1.57D+03 IAcc=2 IRadAn=         4 AccDes= 0.00D+00
 Harris functional with IExCor=  402 and IRadAn=       4 diagonalized for initial guess.
 HarFok:  IExCor=  402 AccDes= 0.00D+00 IRadAn=         4 IDoV= 1 UseB2=F ITyADJ=14
 ICtDFT=  3500011 ScaDFX=  1.000000  1.000000  1.000000  1.000000
 FoFCou: FMM=F IPFlag=           0 FMFlag=      100000 FMFlg1=           0
         NFxFlg=           0 DoJE=T BraDBF=F KetDBF=T FulRan=T
         wScrn=  0.000000 ICntrl=       500 IOpCl=  0 I1Cent=   200000004 NGrid=           0
         NMat0=    1 NMatS0=      1 NMatT0=    0 NMatD0=    1 NMtDS0=    0 NMtDT0=    0
 Petite list used in FoFCou.
 Keep R1 ints in memory in symmetry-blocked form, NReq=7153137.
 Requested convergence on RMS density matrix=1.00D-08 within 128 cycles.
 Requested convergence on MAX density matrix=1.00D-06.
 Requested convergence on             energy=1.00D-06.
 No special actions if energy rises.
 Integral accuracy reduced to 1.0D-05 until final iterations.
 Initial convergence to 1.0D-05 achieved.  Increase integral accuracy.
 SCF Done:  E(RB3LYP) =  -535.751800781     A.U. after   10 cycles
            NFock= 10  Conv=0.78D-08     -V/T= 2.0025
 Calling FoFJK, ICntrl=      2127 FMM=F ISym2X=1 I1Cent= 0 IOpClX= 0 NMat=1 NMatS=1 NMatT=0.
 ***** Axes restored to original set *****
 -------------------------------------------------------------------
 Center     Atomic                   Forces (Hartrees/Bohr)
 Number     Number              X              Y              Z
 -------------------------------------------------------------------
      1       17          -0.017389772   -0.014507170    0.000173936
      2        8           0.037894343    0.029189908    0.003234184
      3        1          -0.020504572   -0.014682738   -0.003408120
 -------------------------------------------------------------------
 Cartesian Forces:  Max     0.037894343 RMS     0.019604477

 GradGradGradGradGradGradGradGradGradGradGradGradGradGradGradGradGradGrad
 Berny optimization.
 FormGI is forming the generalized inverse of G from B-inverse, IUseBI=4.
 Internal  Forces:  Max     0.046635629 RMS     0.028675797
 Search for a saddle point.
 Step number   9 out of a maximum of  100
 All quantities printed in internal units (Hartrees-Bohrs-Radians)
 Swapping is turned off.
 Update second derivatives using D2CorX and points    6    7    8    9
 The second derivative matrix:
                          R1        R2        A1
           R1           0.28167
           R2          -0.01228   0.49811
           A1           0.04292  -0.00055   0.15414
 ITU=  0  0  0  0
     Eigenvalues ---    0.14102   0.29408   0.49883
 Eigenvectors required to have negative eigenvalues:
                          A1        R1        R2
   1                    0.95622  -0.29253  -0.00859
 RFO step:  Lambda0=1.567141340D-01 Lambda=-2.49210580D-05.
 Linear search not attempted -- option 19 set.
 Iteration  1 RMS(Cart)=  0.00918703 RMS(Int)=  0.00003510
 Iteration  2 RMS(Cart)=  0.00002673 RMS(Int)=  0.00000000
 Iteration  3 RMS(Cart)=  0.00000000 RMS(Int)=  0.00000000
 ClnCor:  largest displacement from symmetrization is 8.88D-16 for atom     2.
 Variable       Old X    -DE/DX   Delta X   Delta X   Delta X     New X
                                 (Linear)    (Quad)   (Total)
    R1        3.13256   0.01707   0.00000   0.00603   0.00603   3.13859
    R2        1.83362   0.00087   0.00000   0.00103   0.00103   1.83465
    A1        2.09399  -0.04664   0.00000   0.01147   0.01147   2.10546
         Item               Value     Threshold  Converged?
 Maximum Force            0.046636     0.000450     NO 
 RMS     Force            0.028676     0.000300     NO 
 Maximum Displacement     0.008524     0.001800     NO 
 RMS     Displacement     0.009181     0.001200     NO 
 Predicted change in Energy= 4.493846D-04
 GradGradGradGradGradGradGradGradGradGradGradGradGradGradGradGradGradGrad

                          Input orientation:                          
 ---------------------------------------------------------------------
 Center     Atomic      Atomic             Coordinates (Angstroms)
 Number     Number       Type             X           Y           Z
 ---------------------------------------------------------------------
      1         17           0       -3.136867    3.808305   -1.818141
      2          8           0       -1.850771    4.225885   -0.853734
      3          1           0       -1.703310    3.778615   -0.004758
 ---------------------------------------------------------------------
                    Distance matrix (angstroms):
                    1          2          3
     1  Cl   0.000000
     2  O    1.660873   0.000000
     3  H    2.311780   0.970853   0.000000
 Stoichiometry    ClHO
 Framework group  CS[SG(ClHO)]
 Deg. of freedom     3
 Full point group                 CS      NOp   2
 Largest Abelian subgroup         CS      NOp   2
 Largest concise Abelian subgroup C1      NOp   1
                         Standard orientation:                         
 ---------------------------------------------------------------------
 Center     Atomic      Atomic             Coordinates (Angstroms)
 Number     Number       Type             X           Y           Z
 ---------------------------------------------------------------------
      1         17           0        0.032129   -0.593944    0.000000
      2          8           0        0.032129    1.066928   -0.000000
      3          1           0       -0.803230    1.561630    0.000000
 ---------------------------------------------------------------------
 Rotational constants (GHZ):         798.0674524          15.3282699          15.0394119
 Standard basis: SVP (5D, 7F)
 There are    29 symmetry adapted cartesian basis functions of A'  symmetry.
 There are    10 symmetry adapted cartesian basis functions of A"  symmetry.
 There are    27 symmetry adapted basis functions of A'  symmetry.
 There are    10 symmetry adapted basis functions of A"  symmetry.
    37 basis functions,    69 primitive gaussians,    39 cartesian basis functions
    13 alpha electrons       13 beta electrons
       nuclear repulsion energy        51.5833960911 Hartrees.
 NAtoms=    3 NActive=    3 NUniq=    3 SFac= 1.00D+00 NAtFMM=   60 NAOKFM=F Big=F
 Integral buffers will be    131072 words long.
 Raffenetti 2 integral format.
 Two-electron integral symmetry is turned on.
 Nuclear repulsion after empirical dispersion term =       51.5817936798 Hartrees.
 One-electron integrals computed using PRISM.
 NBasis=    37 RedAO= T EigKep=  3.43D-02  NBF=    27    10
 NBsUse=    37 1.00D-06 EigRej= -1.00D+00 NBFU=    27    10
 Initial guess from the checkpoint file:  "/tmp/Gau-13403.chk"
 B after Tr=    -0.000000   -0.000000   -0.000000
         Rot=    1.000000    0.000000   -0.000000    0.000488 Ang=   0.06 deg.
 Initial guess orbital symmetries:
       Occupied  (A') (A') (A') (A') (A') (A") (A') (A') (A') (A')
                 (A") (A') (A")
       Virtual   (A') (A') (A') (A') (A') (A") (A') (A') (A") (A')
                 (A") (A') (A") (A') (A') (A') (A") (A') (A') (A")
                 (A') (A") (A') (A')
 Keep R1 ints in memory in symmetry-blocked form, NReq=7153137.
 Requested convergence on RMS density matrix=1.00D-08 within 128 cycles.
 Requested convergence on MAX density matrix=1.00D-06.
 Requested convergence on             energy=1.00D-06.
 No special actions if energy rises.
 SCF Done:  E(RB3LYP) =  -535.751351812     A.U. after    8 cycles
            NFock=  8  Conv=0.33D-08     -V/T= 2.0025
 Calling FoFJK, ICntrl=      2127 FMM=F ISym2X=1 I1Cent= 0 IOpClX= 0 NMat=1 NMatS=1 NMatT=0.
 ***** Axes restored to original set *****
 -------------------------------------------------------------------
 Center     Atomic                   Forces (Hartrees/Bohr)
 Number     Number              X              Y              Z
 -------------------------------------------------------------------
      1       17          -0.015853880   -0.014316065    0.001784341
      2        8           0.037229455    0.029446211    0.002031450
      3        1          -0.021375576   -0.015130146   -0.003815791
 -------------------------------------------------------------------
 Cartesian Forces:  Max     0.037229455 RMS     0.019485363

 GradGradGradGradGradGradGradGradGradGradGradGradGradGradGradGradGradGrad
 Berny optimization.
 FormGI is forming the generalized inverse of G from B-inverse, IUseBI=4.
 Internal  Forces:  Max     0.048548522 RMS     0.029310561
 Search for a saddle point.
 Step number  10 out of a maximum of  100
 All quantities printed in internal units (Hartrees-Bohrs-Radians)
 Swapping is turned off.
 Update second derivatives using D2CorX and points    7    8    9   10
 The second derivative matrix:
                          R1        R2        A1
           R1           0.28344
           R2          -0.01235   0.49716
           A1           0.04613   0.00396   0.14217
 ITU=  0  0  0  0
     Eigenvalues ---    0.12829   0.29660   0.49788
 Eigenvectors required to have negative eigenvalues:
                          A1        R1        R2
   1                    0.95791  -0.28640  -0.01987
 RFO step:  Lambda0=1.459466999D-01 Lambda=-1.07567209D-06.
 Linear search not attempted -- option 19 set.
 Iteration  1 RMS(Cart)=  0.00120588 RMS(Int)=  0.00000086
 Iteration  2 RMS(Cart)=  0.00000094 RMS(Int)=  0.00000000
 ClnCor:  largest displacement from symmetrization is 2.49D-15 for atom     3.
 Variable       Old X    -DE/DX   Delta X   Delta X   Delta X     New X
                                 (Linear)    (Quad)   (Total)
    R1        3.13859   0.01484   0.00000   0.00051   0.00051   3.13911
    R2        1.83465   0.00039   0.00000  -0.00126  -0.00126   1.83339
    A1        2.10546  -0.04855   0.00000   0.00178   0.00178   2.10725
         Item               Value     Threshold  Converged?
 Maximum Force            0.048549     0.000450     NO 
 RMS     Force            0.029311     0.000300     NO 
 Maximum Displacement     0.001012     0.001800     YES
 RMS     Displacement     0.001205     0.001200     NO 
 Predicted change in Energy= 8.011502D-05
 GradGradGradGradGradGradGradGradGradGradGradGradGradGradGradGradGradGrad

                          Input orientation:                          
 ---------------------------------------------------------------------
 Center     Atomic      Atomic             Coordinates (Angstroms)
 Number     Number       Type             X           Y           Z
 ---------------------------------------------------------------------
      1         17           0       -3.137059    3.808456   -1.818602
      2          8           0       -1.851064    4.225349   -0.853297
      3          1           0       -1.702825    3.779001   -0.004734
 ---------------------------------------------------------------------
                    Distance matrix (angstroms):
                    1          2          3
     1  Cl   0.000000
     2  O    1.661144   0.000000
     3  H    2.312577   0.970186   0.000000
 Stoichiometry    ClHO
 Framework group  CS[SG(ClHO)]
 Deg. of freedom     3
 Full point group                 CS      NOp   2
 Largest Abelian subgroup         CS      NOp   2
 Largest concise Abelian subgroup C1      NOp   1
                         Standard orientation:                         
 ---------------------------------------------------------------------
 Center     Atomic      Atomic             Coordinates (Angstroms)
 Number     Number       Type             X           Y           Z
 ---------------------------------------------------------------------
      1         17           0        0.032073   -0.594083   -0.000000
      2          8           0        0.032073    1.067062    0.000000
      3          1           0       -0.801830    1.562911    0.000000
 ---------------------------------------------------------------------
 Rotational constants (GHZ):         800.9372872          15.3217275          15.0341285
 Standard basis: SVP (5D, 7F)
 There are    29 symmetry adapted cartesian basis functions of A'  symmetry.
 There are    10 symmetry adapted cartesian basis functions of A"  symmetry.
 There are    27 symmetry adapted basis functions of A'  symmetry.
 There are    10 symmetry adapted basis functions of A"  symmetry.
    37 basis functions,    69 primitive gaussians,    39 cartesian basis functions
    13 alpha electrons       13 beta electrons
       nuclear repulsion energy        51.5779664489 Hartrees.
 NAtoms=    3 NActive=    3 NUniq=    3 SFac= 1.00D+00 NAtFMM=   60 NAOKFM=F Big=F
 Integral buffers will be    131072 words long.
 Raffenetti 2 integral format.
 Two-electron integral symmetry is turned on.
 Nuclear repulsion after empirical dispersion term =       51.5763641343 Hartrees.
 One-electron integrals computed using PRISM.
[...]
     Eigenvalues ---    0.13101   0.29486   0.50391
 Eigenvectors required to have negative eigenvalues:
                          A1        R1        R2
   1                    0.96746  -0.25280  -0.01052
 RFO step:  Lambda0=1.491659814D-01 Lambda= 0.00000000D+00.
 Linear search not attempted -- option 19 set.
 Iteration  1 RMS(Cart)=  0.00000006 RMS(Int)=  0.00000000
 ClnCor:  largest displacement from symmetrization is 8.60D-16 for atom     3.
 Variable       Old X    -DE/DX   Delta X   Delta X   Delta X     New X
                                 (Linear)    (Quad)   (Total)
    R1        3.14286   0.01316   0.00000  -0.00000  -0.00000   3.14286
    R2        1.83436   0.00055   0.00000   0.00000   0.00000   1.83436
    A1        2.11689  -0.05035   0.00000   0.00000   0.00000   2.11689
         Item               Value     Threshold  Converged?
 Maximum Force            0.050345     0.000450     NO 
 RMS     Force            0.030044     0.000300     NO 
 Maximum Displacement     0.000000     0.001800     YES
 RMS     Displacement     0.000000     0.001200     YES
 Predicted change in Energy= 4.007720D-09
 GradGradGradGradGradGradGradGradGradGradGradGradGradGradGradGradGradGrad

                          Input orientation:                          
 ---------------------------------------------------------------------
 Center     Atomic      Atomic             Coordinates (Angstroms)
 Number     Number       Type             X           Y           Z
 ---------------------------------------------------------------------
      1         17           0       -3.138914    3.809250   -1.822075
      2          8           0       -1.852791    4.223239   -0.852280
      3          1           0       -1.699243    3.780317   -0.002277
 ---------------------------------------------------------------------
                    Distance matrix (angstroms):
                    1          2          3
     1  Cl   0.000000
     2  O    1.663130   0.000000
     3  H    2.320593   0.970702   0.000000
 Stoichiometry    ClHO
 Framework group  CS[SG(ClHO)]
 Deg. of freedom     3
 Full point group                 CS      NOp   2
 Largest Abelian subgroup         CS      NOp   2
 Largest concise Abelian subgroup C1      NOp   1
                         Standard orientation:                         
 ---------------------------------------------------------------------
 Center     Atomic      Atomic             Coordinates (Angstroms)
 Number     Number       Type             X           Y           Z
 ---------------------------------------------------------------------
      1         17           0        0.031905   -0.595089   -0.000000
      2          8           0        0.031905    1.068041    0.000000
      3          1           0       -0.797618    1.572178    0.000000
 ---------------------------------------------------------------------
 Rotational constants (GHZ):         810.0236950          15.2737509          14.9910801
 Standard basis: SVP (5D, 7F)
 There are    29 symmetry adapted cartesian basis functions of A'  symmetry.
 There are    10 symmetry adapted cartesian basis functions of A"  symmetry.
 There are    27 symmetry adapted basis functions of A'  symmetry.
 There are    10 symmetry adapted basis functions of A"  symmetry.
    37 basis functions,    69 primitive gaussians,    39 cartesian basis functions
    13 alpha electrons       13 beta electrons
       nuclear repulsion energy        51.5104868036 Hartrees.
 NAtoms=    3 NActive=    3 NUniq=    3 SFac= 1.00D+00 NAtFMM=   60 NAOKFM=F Big=F
 Integral buffers will be    131072 words long.
 Raffenetti 2 integral format.
 Two-electron integral symmetry is turned on.
 Nuclear repulsion after empirical dispersion term =       51.5088853802 Hartrees.
 One-electron integrals computed using PRISM.
 NBasis=    37 RedAO= T EigKep=  3.45D-02  NBF=    27    10
 NBsUse=    37 1.00D-06 EigRej= -1.00D+00 NBFU=    27    10
 Initial guess from the checkpoint file:  "/tmp/Gau-13403.chk"
 B after Tr=     0.000000   -0.000000    0.000000
         Rot=    1.000000    0.000000   -0.000000    0.000000 Ang=   0.00 deg.
 Initial guess orbital symmetries:
       Occupied  (A') (A') (A') (A') (A') (A") (A') (A') (A') (A')
                 (A") (A') (A")
       Virtual   (A') (A') (A') (A') (A') (A") (A') (A') (A") (A')
                 (A") (A') (A") (A') (A') (A') (A") (A') (A') (A")
                 (A') (A") (A') (A')
 Keep R1 ints in memory in symmetry-blocked form, NReq=7153137.
 Requested convergence on RMS density matrix=1.00D-08 within 128 cycles.
 Requested convergence on MAX density matrix=1.00D-06.
 Requested convergence on             energy=1.00D-06.
 No special actions if energy rises.
 SCF Done:  E(RB3LYP) =  -535.750846249     A.U. after    1 cycles
            NFock=  1  Conv=0.85D-08     -V/T= 2.0025
 Calling FoFJK, ICntrl=      2127 FMM=F ISym2X=1 I1Cent= 0 IOpClX= 0 NMat=1 NMatS=1 NMatT=0.
 ***** Axes restored to original set *****
 -------------------------------------------------------------------
 Center     Atomic                   Forces (Hartrees/Bohr)
 Number     Number              X              Y              Z
 -------------------------------------------------------------------
      1       17          -0.014736623   -0.014251220    0.003066410
      2        8           0.036847876    0.030106348    0.000576114
      3        1          -0.022111253   -0.015855128   -0.003642524
 -------------------------------------------------------------------
 Cartesian Forces:  Max     0.036847876 RMS     0.019572426

 GradGradGradGradGradGradGradGradGradGradGradGradGradGradGradGradGradGrad
 Berny optimization.
 Internal  Forces:  Max     0.050345074 RMS     0.030044364
 Search for a saddle point.
 Step number  99 out of a maximum of  100
 All quantities printed in internal units (Hartrees-Bohrs-Radians)
 Swapping is turned off.
 Update second derivatives using D2CorX and points   99
 The second derivative matrix:
                          R1        R2        A1
           R1           0.28469
           R2          -0.00845   0.50358
           A1           0.04007   0.00184   0.14150
 ITU=  0  0  0  0
     Eigenvalues ---    0.13101   0.29486   0.50391
 Eigenvectors required to have negative eigenvalues:
                          A1        R1        R2
   1                    0.96746  -0.25280  -0.01052
 RFO step:  Lambda0=1.491660205D-01 Lambda= 0.00000000D+00.
 Linear search not attempted -- option 19 set.
 Iteration  1 RMS(Cart)=  0.00000009 RMS(Int)=  0.00000000
 ClnCor:  largest displacement from symmetrization is 2.31D-15 for atom     3.
 Variable       Old X    -DE/DX   Delta X   Delta X   Delta X     New X
                                 (Linear)    (Quad)   (Total)
    R1        3.14286   0.01316   0.00000  -0.00000  -0.00000   3.14286
    R2        1.83436   0.00055   0.00000  -0.00000  -0.00000   1.83436
    A1        2.11689  -0.05035   0.00000   0.00000   0.00000   2.11689
         Item               Value     Threshold  Converged?
 Maximum Force            0.050345     0.000450     NO 
 RMS     Force            0.030044     0.000300     NO 
 Maximum Displacement     0.000000     0.001800     YES
 RMS     Displacement     0.000000     0.001200     YES
 Predicted change in Energy= 7.286707D-09
 GradGradGradGradGradGradGradGradGradGradGradGradGradGradGradGradGradGrad

                          Input orientation:                          
 ---------------------------------------------------------------------
 Center     Atomic      Atomic             Coordinates (Angstroms)
 Number     Number       Type             X           Y           Z
 ---------------------------------------------------------------------
      1         17           0       -3.138914    3.809250   -1.822075
      2          8           0       -1.852791    4.223239   -0.852280
      3          1           0       -1.699243    3.780317   -0.002277
 ---------------------------------------------------------------------
                    Distance matrix (angstroms):
                    1          2          3
     1  Cl   0.000000
     2  O    1.663130   0.000000
     3  H    2.320593   0.970702   0.000000
 Stoichiometry    ClHO
 Framework group  CS[SG(ClHO)]
 Deg. of freedom     3
 Full point group                 CS      NOp   2
 Largest Abelian subgroup         CS      NOp   2
 Largest concise Abelian subgroup C1      NOp   1
                         Standard orientation:                         
 ---------------------------------------------------------------------
 Center     Atomic      Atomic             Coordinates (Angstroms)
 Number     Number       Type             X           Y           Z
 ---------------------------------------------------------------------
      1         17           0        0.031905   -0.595089   -0.000000
      2          8           0        0.031905    1.068041   -0.000000
      3          1           0       -0.797618    1.572178    0.000000
 ---------------------------------------------------------------------
 Rotational constants (GHZ):         810.0239592          15.2737511          14.9910804
 Standard basis: SVP (5D, 7F)
 There are    29 symmetry adapted cartesian basis functions of A'  symmetry.
 There are    10 symmetry adapted cartesian basis functions of A"  symmetry.
 There are    27 symmetry adapted basis functions of A'  symmetry.
 There are    10 symmetry adapted basis functions of A"  symmetry.
    37 basis functions,    69 primitive gaussians,    39 cartesian basis functions
    13 alpha electrons       13 beta electrons
       nuclear repulsion energy        51.5104875328 Hartrees.
 NAtoms=    3 NActive=    3 NUniq=    3 SFac= 1.00D+00 NAtFMM=   60 NAOKFM=F Big=F
 Integral buffers will be    131072 words long.
 Raffenetti 2 integral format.
 Two-electron integral symmetry is turned on.
 Nuclear repulsion after empirical dispersion term =       51.5088861094 Hartrees.
 One-electron integrals computed using PRISM.
 NBasis=    37 RedAO= T EigKep=  3.45D-02  NBF=    27    10
 NBsUse=    37 1.00D-06 EigRej= -1.00D+00 NBFU=    27    10
 Initial guess from the checkpoint file:  "/tmp/Gau-13403.chk"
 B after Tr=     0.000000    0.000000   -0.000000
         Rot=    1.000000   -0.000000    0.000000    0.000000 Ang=   0.00 deg.
 Initial guess orbital symmetries:
       Occupied  (A') (A') (A') (A') (A') (A") (A') (A') (A') (A')
                 (A") (A') (A")
       Virtual   (A') (A') (A') (A') (A') (A") (A') (A') (A") (A')
                 (A") (A') (A") (A') (A') (A') (A") (A') (A') (A")
                 (A') (A") (A') (A')
 Keep R1 ints in memory in symmetry-blocked form, NReq=7153137.
 Requested convergence on RMS density matrix=1.00D-08 within 128 cycles.
 Requested convergence on MAX density matrix=1.00D-06.
 Requested convergence on             energy=1.00D-06.
 No special actions if energy rises.
 SCF Done:  E(RB3LYP) =  -535.750846242     A.U. after    3 cycles
            NFock=  3  Conv=0.21D-09     -V/T= 2.0025
 Calling FoFJK, ICntrl=      2127 FMM=F ISym2X=1 I1Cent= 0 IOpClX= 0 NMat=1 NMatS=1 NMatT=0.
 ***** Axes restored to original set *****
 -------------------------------------------------------------------
 Center     Atomic                   Forces (Hartrees/Bohr)
 Number     Number              X              Y              Z
 -------------------------------------------------------------------
      1       17          -0.014736616   -0.014251214    0.003066411
      2        8           0.036847844    0.030106392    0.000576007
      3        1          -0.022111228   -0.015855178   -0.003642418
 -------------------------------------------------------------------
 Cartesian Forces:  Max     0.036847844 RMS     0.019572425

 GradGradGradGradGradGradGradGradGradGradGradGradGradGradGradGradGradGrad
 Berny optimization.
 FormGI is forming the generalized inverse of G from B-inverse, IUseBI=4.
 Internal  Forces:  Max     0.050345060 RMS     0.030044355
 Search for a saddle point.
 Step number 100 out of a maximum of  100
 All quantities printed in internal units (Hartrees-Bohrs-Radians)
 Swapping is turned off.
 Update second derivatives using D2CorX and points  100
 The second derivative matrix:
                          R1        R2        A1
           R1           0.28469
           R2          -0.00845   0.50358
           A1           0.04007   0.00184   0.14150
 ITU=  0  0  0  0
     Eigenvalues ---    0.13101   0.29486   0.50391
 Eigenvectors required to have negative eigenvalues:
                          A1        R1        R2
   1                    0.96746  -0.25280  -0.01052
 RFO step:  Lambda0=1.491660111D-01 Lambda= 0.00000000D+00.
 Linear search not attempted -- option 19 set.
 Iteration  1 RMS(Cart)=  0.00000007 RMS(Int)=  0.00000000
 ClnCor:  largest displacement from symmetrization is 4.78D-15 for atom     3.
 Variable       Old X    -DE/DX   Delta X   Delta X   Delta X     New X
                                 (Linear)    (Quad)   (Total)
    R1        3.14286   0.01316   0.00000  -0.00000  -0.00000   3.14286
    R2        1.83436   0.00055   0.00000   0.00000   0.00000   1.83436
    A1        2.11689  -0.05035   0.00000   0.00000   0.00000   2.11689
         Item               Value     Threshold  Converged?
 Maximum Force            0.050345     0.000450     NO 
 RMS     Force            0.030044     0.000300     NO 
 Maximum Displacement     0.000000     0.001800     YES
 RMS     Displacement     0.000000     0.001200     YES
 Predicted change in Energy= 4.286116D-09
 Optimization stopped.
    -- Number of steps exceeded,  NStep= 100
    -- Flag reset to prevent archiving.
                           ----------------------------
                           ! Non-Optimized Parameters !
                           ! (Angstroms and Degrees)  !
 --------------------------                            --------------------------
 ! Name  Definition              Value          Derivative Info.                !
 --------------------------------------------------------------------------------
 ! R1    R(1,2)                  1.6631         -DE/DX =    0.0132              !
 ! R2    R(2,3)                  0.9707         -DE/DX =    0.0005              !
 ! A1    A(1,2,3)              121.2889         -DE/DX =   -0.0503              !
 --------------------------------------------------------------------------------
 GradGradGradGradGradGradGradGradGradGradGradGradGradGradGradGradGradGrad

                          Input orientation:                          
 ---------------------------------------------------------------------
 Center     Atomic      Atomic             Coordinates (Angstroms)
 Number     Number       Type             X           Y           Z
 ---------------------------------------------------------------------
      1         17           0       -3.138914    3.809250   -1.822075
      2          8           0       -1.852791    4.223239   -0.852280
      3          1           0       -1.699243    3.780317   -0.002277
 ---------------------------------------------------------------------
                    Distance matrix (angstroms):
                    1          2          3
     1  Cl   0.000000
     2  O    1.663130   0.000000
     3  H    2.320593   0.970702   0.000000
 Stoichiometry    ClHO
 Framework group  CS[SG(ClHO)]
 Deg. of freedom     3
 Full point group                 CS      NOp   2
 Largest Abelian subgroup         CS      NOp   2
 Largest concise Abelian subgroup C1      NOp   1
                         Standard orientation:                         
 ---------------------------------------------------------------------
 Center     Atomic      Atomic             Coordinates (Angstroms)
 Number     Number       Type             X           Y           Z
 ---------------------------------------------------------------------
      1         17           0        0.031905   -0.595089   -0.000000
      2          8           0        0.031905    1.068041    0.000000
      3          1           0       -0.797618    1.572178    0.000000
 ---------------------------------------------------------------------
 Rotational constants (GHZ):         810.0239592          15.2737511          14.9910804

 **********************************************************************

            Population analysis using the SCF density.

 **********************************************************************

 Orbital symmetries:
       Occupied  (A') (A') (A') (A') (A') (A") (A') (A') (A') (A')
                 (A") (A') (A")
       Virtual   (A') (A') (A') (A') (A') (A") (A') (A') (A") (A')
                 (A") (A') (A") (A') (A') (A') (A") (A') (A') (A")
                 (A') (A") (A') (A')
 The electronic state is 1-A'.
 Alpha  occ. eigenvalues -- -101.54086 -19.17996  -9.49299  -7.26663  -7.24987
 Alpha  occ. eigenvalues --   -7.24947  -1.04738  -0.79314  -0.53739  -0.41781
 Alpha  occ. eigenvalues --   -0.40171  -0.29953  -0.26898
 Alpha virt. eigenvalues --   -0.05556   0.07250   0.43767   0.54210   0.69857
 Alpha virt. eigenvalues --    0.70134   0.73779   0.76228   0.76273   0.84765
 Alpha virt. eigenvalues --    0.85120   0.95370   0.99468   1.08016   1.15797
 Alpha virt. eigenvalues --    1.22733   1.44823   1.67756   2.16521   2.63164
 Alpha virt. eigenvalues --    2.76758   2.92046   3.04996   3.63354
          Condensed to atoms (all electrons):
               1          2          3
     1  Cl  16.785823   0.100217  -0.021141
     2  O    0.100217   7.938858   0.312072
     3  H   -0.021141   0.312072   0.493026
 Mulliken charges:
               1
     1  Cl   0.135102
     2  O   -0.351146
     3  H    0.216044
 Sum of Mulliken charges =   0.00000
 Mulliken charges with hydrogens summed into heavy atoms:
               1
     1  Cl   0.135102
     2  O   -0.135102
 Electronic spatial extent (au):  <R**2>=            102.7788
 Charge=             -0.0000 electrons
 Dipole moment (field-independent basis, Debye):
    X=             -1.5754    Y=              0.3777    Z=             -0.0000  Tot=              1.6200
 Quadrupole moment (field-independent basis, Debye-Ang):
   XX=            -16.9421   YY=            -14.9708   ZZ=            -18.5289
   XY=             -2.8923   XZ=              0.0000   YZ=              0.0000
 Traceless Quadrupole moment (field-independent basis, Debye-Ang):
   XX=             -0.1282   YY=              1.8431   ZZ=             -1.7150
   XY=             -2.8923   XZ=              0.0000   YZ=              0.0000
 Octapole moment (field-independent basis, Debye-Ang**2):
  XXX=             -1.6267  YYY=              3.8538  ZZZ=              0.0000  XYY=             -4.3485
  XXY=              2.9491  XXZ=              0.0000  XZZ=             -0.2245  YZZ=              0.7017
  YYZ=              0.0000  XYZ=             -0.0000
 Hexadecapole moment (field-independent basis, Debye-Ang**3):
 XXXX=            -16.9859 YYYY=            -68.8696 ZZZZ=            -16.5366 XXXY=             -0.1514
 XXXZ=              0.0000 YYYX=             -5.7311 YYYZ=              0.0000 ZZZX=              0.0000
 ZZZY=              0.0000 XXYY=            -14.0967 XXZZ=             -5.7547 YYZZ=            -17.4652
 XXYZ=              0.0000 YYXZ=              0.0000 ZZXY=              0.4961
 N-N= 5.150888610944D+01 E-N=-1.376088328018D+03  KE= 5.344231015380D+02
 Symmetry A'   KE= 4.836699184211D+02
 Symmetry A"   KE= 5.075318311688D+01


 WE STILL HAVE JUDGEMENT HERE,
 THAT WE TEACH BUT BLOODY INSTRUCTIONS,
 WHICH, BEING TAUGHT,
 RETURN TO PLAGUE THE INVENTOR.
           MACBETH ACT I, SCENE VII
 Error termination request processed by link 9999.
 Error termination via Lnk1e in /share/apps/g16.a03/g16/l9999.exe at Thu Mar  6 16:41:28 2025.
 Job cpu time:       0 days  0 hours 13 minutes 19.5 seconds.
 Elapsed time:       0 days  0 hours  1 minutes 43.8 seconds.
 File lengths (MBytes):  RWF=      6 Int=      0 D2E=      0 Chk=      1 Scr=      1
