 Entering Gaussian System, Link 0=g16
 Input=ts.gjf
 Output=ts.log
 Initial command:
 /share/apps/g16.a03/g16/l1.exe "/tmp/Gau-890.inp" -scrdir="/tmp/"
 Entering Link 1 = /share/apps/g16.a03/g16/l1.exe PID=       892.
  
 Copyright (c) 1988,1990,1992,1993,1995,1998,2003,2009,2016,
            Gaussian, Inc.  All Rights Reserved.
  
 This is part of the Gaussian(R) 16 program.  It is based on
 the Gaussian(R) 09 system (copyright 2009, Gaussian, Inc.),
 the Gaussian(R) 03 system (copyright 2003, Gaussian, Inc.),
 the Gaussian(R) 98 system (copyright 1998, Gaussian, Inc.),
 the Gaussian(R) 94 system (copyright 1995, Gaussian, Inc.),
 the Gaussian 92(TM) system (copyright 1992, Gaussian, Inc.),
 the Gaussian 90(TM) system (copyright 1990, Gaussian, Inc.),
 the Gaussian 88(TM) system (copyright 1988, Gaussian, Inc.),
 the Gaussian 86(TM) system (copyright 1986, Carnegie Mellon
 University), and the Gaussian 82(TM) system (copyright 1983,
 Carnegie Mellon University). Gaussian is a federally registered
 trademark of Gaussian, Inc.
  
 This software contains proprietary and confidential information,
 including trade secrets, belonging to Gaussian, Inc.
  
 This software is provided under written license and may be
 used, copied, transmitted, or stored only in accord with that
 written license.
  
 The following legend is applicable only to US Government
 contracts under FAR:
  
                    RESTRICTED RIGHTS LEGEND
  
 Use, reproduction and disclosure by the US Government is
 subject to restrictions as set forth in subparagraphs (a)
 and (c) of the Commercial Computer Software - Restricted
 Rights clause in FAR 52.227-19.
  
 Gaussian, Inc.
 340 Quinnipiac St., Bldg. 40, Wallingford CT 06492
  
  
 ---------------------------------------------------------------
 Warning -- This program may not be used in any manner that
 competes with the business of Gaussian, Inc. or will provide
 assistance to any competitor of Gaussian, Inc.  The licensee
 of this program is prohibited from giving any competitor of
 Gaussian, Inc. access to this program.  By using this program,
 the user acknowledges that Gaussian, Inc. is engaged in the
 business of creating and licensing software in the field of
 computational chemistry and represents and warrants to the
 licensee that it is not a competitor of Gaussian, Inc. and that
 it will not use this program in any manner prohibited above.
 ---------------------------------------------------------------
  

 Cite this work as:
 Gaussian 16, Revision A.03,
 M. J. Frisch, G. W. Trucks, H. B. Schlegel, G. E. Scuseria, 
 M. A. Robb, J. R. Cheeseman, G. Scalmani, V. Barone, 
 G. A. Petersson, H. Nakatsuji, X. Li, M. Caricato, A. V. Marenich, 
 J. Bloino, B. G. Janesko, R. Gomperts, B. Mennucci, H. P. Hratchian, 
 J. V. Ortiz, A. F. Izmaylov, J. L. Sonnenberg, D. Williams-Young, 
 F. Ding, F. Lipparini, F. Egidi, J. Goings, B. Peng, A. Petrone, 
 T. Henderson, D. Ranasinghe, V. G. Zakrzewski, J. Gao, N. Rega, 
 G. Zheng, W. Liang, M. Hada, M. Ehara, K. Toyota, R. Fukuda, 
 J. Hasegawa, M. Ishida, T. Nakajima, Y. Honda, O. Kitao, H. Nakai, 
 T. Vreven, K. Throssell, J. A. Montgomery, Jr., J. E. Peralta, 
 F. Ogliaro, M. J. Bearpark, J. J. Heyd, E. N. Brothers, K. N. Kudin, 
 V. N. Staroverov, T. A. Keith, R. Kobayashi, J. Normand, 
 K. Raghavachari, A. P. Rendell, J. C. Burant, S. S. Iyengar, 
 J. Tomasi, M. Cossi, J. M. Millam, M. Klene, C. Adamo, R. Cammi, 
 J. W. Ochterski, R. L. Martin, K. Morokuma, O. Farkas, 
 J. B. Foresman, and D. J. Fox, Gaussian, Inc., Wallingford CT, 2016.
 
 ******************************************
 Gaussian 16:  EM64L-G16RevA.03 25-Dec-2016
                 6-Mar-2025 
 ******************************************
 %nproc=8
 Will use up to    8 processors via shared memory.
 %mem=4000MB
 --------------------------------------------------------------------
 #opt=(noeigen,calcfc,ts,recalc=5,maxcyc=200) freq B3LYP/SVP em=GD3BJ
 --------------------------------------------------------------------
 1/5=1,6=200,10=4,11=1,18=20,26=3,38=1,71=5/1,3;
 2/9=110,12=2,17=6,18=5,40=1/2;
 3/5=18,7=101,11=2,25=1,30=1,71=2,74=-5,124=41,140=1/1,2,3;
 4//1;
 5/5=2,38=5/2;
 8/6=4,10=90,11=11/1;
 11/6=1,8=1,9=11,15=111,16=1/1,2,10;
 10/6=1,13=1/2;
 6/7=2,8=2,9=2,10=2,28=1/1;
 7/10=1,18=20,25=1/1,2,3,16;
 1/5=1,6=200,10=4,11=1,18=20,26=3,71=5/3(2);
 2/9=110/2;
 99//99;
 2/9=110/2;
 3/5=18,7=101,11=2,25=1,30=1,71=1,74=-5,124=41/1,2,3;
 4/5=5,16=3,69=1/1;
 5/5=2,38=5/2;
 7//1,2,3,16;
 1/5=1,6=200,11=1,18=20,26=3,71=5/3(-5);
 2/9=110/2;
 6/7=2,8=2,9=2,10=2,19=2,28=1/1;
 99/9=1/99;
 ----------
 ts-622.gjf
 ----------
 Symbolic Z-matrix:
 Charge =  0 Multiplicity = 1
 O                     2.02919   2.80531   1.41682 
 Cl                    2.72444   2.36171   3.01615 
 H                     2.61899   3.29311   0.88255 
 

 GradGradGradGradGradGradGradGradGradGradGradGradGradGradGradGradGradGrad
 Berny optimization.
 Initialization pass.
                           ----------------------------
                           !    Initial Parameters    !
                           ! (Angstroms and Degrees)  !
 --------------------------                            --------------------------
 ! Name  Definition              Value          Derivative Info.                !
 --------------------------------------------------------------------------------
 ! R1    R(1,2)                  1.7994         calculate D2E/DX2 analytically  !
 ! R2    R(1,3)                  0.9334         calculate D2E/DX2 analytically  !
 ! A1    A(2,1,3)              113.1674         calculate D2E/DX2 analytically  !
 --------------------------------------------------------------------------------
 Trust Radius=3.00D-01 FncErr=1.00D-07 GrdErr=1.00D-06 EigMax=2.50D+02 EigMin=1.00D-04
 Number of steps in this run=    100 maximum allowed number of steps=    100.
 Search for a saddle point of order  1.
 GradGradGradGradGradGradGradGradGradGradGradGradGradGradGradGradGradGrad

                          Input orientation:                          
 ---------------------------------------------------------------------
 Center     Atomic      Atomic             Coordinates (Angstroms)
 Number     Number       Type             X           Y           Z
 ---------------------------------------------------------------------
      1          8           0        2.029187    2.805308    1.416822
      2         17           0        2.724441    2.361714    3.016154
      3          1           0        2.618993    3.293108    0.882549
 ---------------------------------------------------------------------
                    Distance matrix (angstroms):
                    1          2          3
     1  O    0.000000
     2  Cl   1.799450   0.000000
     3  H    0.933417   2.330426   0.000000
 Stoichiometry    ClHO
 Framework group  CS[SG(ClHO)]
 Deg. of freedom     3
 Full point group                 CS      NOp   2
 Largest Abelian subgroup         CS      NOp   2
 Largest concise Abelian subgroup C1      NOp   1
                         Standard orientation:                         
 ---------------------------------------------------------------------
 Center     Atomic      Atomic             Coordinates (Angstroms)
 Number     Number       Type             X           Y           Z
 ---------------------------------------------------------------------
      1          8           0        0.033006    1.162439    0.000000
      2         17           0        0.033006   -0.637010   -0.000000
      3          1           0       -0.825140    1.529662    0.000000
 ---------------------------------------------------------------------
 Rotational constants (GHZ):         744.9274464          13.2567265          13.0249348
 Standard basis: SVP (5D, 7F)
 There are    29 symmetry adapted cartesian basis functions of A'  symmetry.
 There are    10 symmetry adapted cartesian basis functions of A"  symmetry.
 There are    27 symmetry adapted basis functions of A'  symmetry.
 There are    10 symmetry adapted basis functions of A"  symmetry.
    37 basis functions,    69 primitive gaussians,    39 cartesian basis functions
    13 alpha electrons       13 beta electrons
       nuclear repulsion energy        48.3901496205 Hartrees.
 NAtoms=    3 NActive=    3 NUniq=    3 SFac= 1.00D+00 NAtFMM=   60 NAOKFM=F Big=F
 Integral buffers will be    131072 words long.
 Raffenetti 2 integral format.
 Two-electron integral symmetry is turned on.
 Nuclear repulsion after empirical dispersion term =       48.3885526110 Hartrees.
 One-electron integrals computed using PRISM.
 NBasis=    37 RedAO= T EigKep=  4.01D-02  NBF=    27    10
 NBsUse=    37 1.00D-06 EigRej= -1.00D+00 NBFU=    27    10
 ExpMin= 1.22D-01 ExpMax= 1.04D+04 ExpMxC= 1.57D+03 IAcc=3 IRadAn=         5 AccDes= 0.00D+00
 Harris functional with IExCor=  402 and IRadAn=       5 diagonalized for initial guess.
 HarFok:  IExCor=  402 AccDes= 0.00D+00 IRadAn=         5 IDoV= 1 UseB2=F ITyADJ=14
 ICtDFT=  3500011 ScaDFX=  1.000000  1.000000  1.000000  1.000000
 FoFCou: FMM=F IPFlag=           0 FMFlag=      100000 FMFlg1=           0
         NFxFlg=           0 DoJE=T BraDBF=F KetDBF=T FulRan=T
         wScrn=  0.000000 ICntrl=       500 IOpCl=  0 I1Cent=   200000004 NGrid=           0
         NMat0=    1 NMatS0=      1 NMatT0=    0 NMatD0=    1 NMtDS0=    0 NMtDT0=    0
 Petite list used in FoFCou.
 Initial guess orbital symmetries:
       Occupied  (A') (A') (A') (A') (A') (A") (A') (A') (A') (A')
                 (A") (A') (A")
       Virtual   (A') (A') (A') (A') (A') (A") (A') (A') (A") (A')
                 (A") (A') (A") (A') (A') (A') (A") (A') (A') (A")
                 (A') (A") (A') (A')
 The electronic state of the initial guess is 1-A'.
 Keep R1 ints in memory in symmetry-blocked form, NReq=7153137.
 Requested convergence on RMS density matrix=1.00D-08 within 128 cycles.
 Requested convergence on MAX density matrix=1.00D-06.
 Requested convergence on             energy=1.00D-06.
 No special actions if energy rises.
 Integral accuracy reduced to 1.0D-05 until final iterations.
 Initial convergence to 1.0D-05 achieved.  Increase integral accuracy.
 SCF Done:  E(RB3LYP) =  -535.751969161     A.U. after   12 cycles
            NFock= 12  Conv=0.53D-08     -V/T= 2.0027
 DoSCS=F DFT=T ScalE2(SS,OS)=  1.000000  1.000000
 Range of M.O.s used for correlation:     1    37
 NBasis=    37 NAE=    13 NBE=    13 NFC=     0 NFV=     0
 NROrb=     37 NOA=    13 NOB=    13 NVA=    24 NVB=    24
 Symmetrizing basis deriv contribution to polar:
 IMax=3 JMax=2 DiffMx= 0.00D+00
 G2DrvN: will do     4 centers at a time, making    1 passes.
 Calling FoFCou, ICntrl=  3107 FMM=F I1Cent=   0 AccDes= 0.00D+00.
 End of G2Drv F.D. properties file   721 does not exist.
 End of G2Drv F.D. properties file   722 does not exist.
 End of G2Drv F.D. properties file   788 does not exist.
          IDoAtm=111
          Differentiating once with respect to nuclear coordinates.
 Keep R1 ints in memory in symmetry-blocked form, NReq=7127942.
          There are    12 degrees of freedom in the 1st order CPHF.  IDoFFX=6 NUNeed=     0.
      6 vectors produced by pass  0 Test12= 2.60D-15 8.33D-09 XBig12= 7.89D-02 2.03D-01.
 AX will form     6 AO Fock derivatives at one time.
      6 vectors produced by pass  1 Test12= 2.60D-15 8.33D-09 XBig12= 2.74D-02 9.14D-02.
      6 vectors produced by pass  2 Test12= 2.60D-15 8.33D-09 XBig12= 7.32D-04 7.13D-03.
      6 vectors produced by pass  3 Test12= 2.60D-15 8.33D-09 XBig12= 2.54D-05 1.66D-03.
      6 vectors produced by pass  4 Test12= 2.60D-15 8.33D-09 XBig12= 3.54D-07 1.62D-04.
      6 vectors produced by pass  5 Test12= 2.60D-15 8.33D-09 XBig12= 6.87D-10 8.76D-06.
      3 vectors produced by pass  6 Test12= 2.60D-15 8.33D-09 XBig12= 8.45D-13 3.84D-07.
 InvSVY:  IOpt=1 It=  1 EMax= 2.22D-16
 Solved reduced A of dimension    39 with     6 vectors.
 End of Minotr F.D. properties file   721 does not exist.
 End of Minotr F.D. properties file   722 does not exist.
 End of Minotr F.D. properties file   788 does not exist.

 **********************************************************************

            Population analysis using the SCF density.

 **********************************************************************

 Orbital symmetries:
       Occupied  (A') (A') (A') (A') (A') (A") (A') (A') (A') (A')
                 (A") (A') (A")
       Virtual   (A') (A') (A') (A') (A') (A") (A') (A') (A") (A')
                 (A") (A') (A") (A') (A') (A') (A") (A') (A') (A")
                 (A') (A") (A') (A')
 The electronic state is 1-A'.
 Alpha  occ. eigenvalues -- -101.54544 -19.19220  -9.49596  -7.26960  -7.25307
 Alpha  occ. eigenvalues --   -7.25276  -1.02761  -0.80259  -0.52231  -0.41305
 Alpha  occ. eigenvalues --   -0.38588  -0.31636  -0.28616
 Alpha virt. eigenvalues --   -0.10115   0.07126   0.45473   0.57044   0.69231
 Alpha virt. eigenvalues --    0.69528   0.71285   0.76192   0.76243   0.84183
 Alpha virt. eigenvalues --    0.84502   0.95337   0.99744   1.04604   1.11024
 Alpha virt. eigenvalues --    1.25018   1.43293   1.63277   2.24668   2.60958
 Alpha virt. eigenvalues --    2.77147   2.96647   2.97726   3.69084
          Condensed to atoms (all electrons):
               1          2          3
     1  O    7.847700   0.134635   0.313182
     2  Cl   0.134635  16.780814  -0.015783
     3  H    0.313182  -0.015783   0.507419
 Mulliken charges:
               1
     1  O   -0.295516
     2  Cl   0.100334
     3  H    0.195182
 Sum of Mulliken charges =  -0.00000
 Mulliken charges with hydrogens summed into heavy atoms:
               1
     1  O   -0.100334
     2  Cl   0.100334
 APT charges:
               1
     1  O   -0.603815
     2  Cl   0.115997
     3  H    0.487818
 Sum of APT charges =  -0.00000
 APT charges with hydrogens summed into heavy atoms:
               1
     1  O   -0.115997
     2  Cl   0.115997
 Electronic spatial extent (au):  <R**2>=            111.8677
 Charge=             -0.0000 electrons
 Dipole moment (field-independent basis, Debye):
    X=             -1.5848    Y=              0.1775    Z=              0.0000  Tot=              1.5947
 Quadrupole moment (field-independent basis, Debye-Ang):
   XX=            -16.8921   YY=            -15.2723   ZZ=            -18.6044
   XY=             -2.8096   XZ=             -0.0000   YZ=             -0.0000
 Traceless Quadrupole moment (field-independent basis, Debye-Ang):
   XX=              0.0308   YY=              1.6506   ZZ=             -1.6815
   XY=             -2.8096   XZ=             -0.0000   YZ=             -0.0000
 Octapole moment (field-independent basis, Debye-Ang**2):
  XXX=             -1.7641  YYY=              2.8931  ZZZ=              0.0000  XYY=             -4.2233
  XXY=              3.0739  XXZ=              0.0000  XZZ=             -0.2487  YZZ=              0.6443
  YYZ=              0.0000  XYZ=             -0.0000
 Hexadecapole moment (field-independent basis, Debye-Ang**3):
 XXXX=            -16.9453 YYYY=            -79.5985 ZZZZ=            -16.6147 XXXY=             -0.2404
 XXXZ=             -0.0000 YYYX=             -5.2509 YYYZ=             -0.0000 ZZZX=              0.0000
 ZZZY=             -0.0000 XXYY=            -15.6819 XXZZ=             -5.7836 YYZZ=            -19.1312
 XXYZ=              0.0000 YYXZ=             -0.0000 ZZXY=              0.4811
 N-N= 4.838855261100D+01 E-N=-1.369717954809D+03  KE= 5.343077211398D+02
 Symmetry A'   KE= 4.835677359148D+02
 Symmetry A"   KE= 5.073998522501D+01
  Exact polarizability:   0.000   0.000   0.000   0.000   0.000   0.000
 Approx polarizability:  13.301  -1.791  42.109  -0.000  -0.000  10.058
 Calling FoFJK, ICntrl=    100147 FMM=F ISym2X=1 I1Cent= 0 IOpClX= 0 NMat=1 NMatS=1 NMatT=0.
 ***** Axes restored to original set *****
 -------------------------------------------------------------------
 Center     Atomic                   Forces (Hartrees/Bohr)
 Number     Number              X              Y              Z
 -------------------------------------------------------------------
      1        8          -0.038883360   -0.036305751    0.044298076
      2       17          -0.004191733    0.013823914   -0.034042056
      3        1           0.043075093    0.022481838   -0.010256019
 -------------------------------------------------------------------
 Cartesian Forces:  Max     0.044298076 RMS     0.030958679
 FormGI is forming the generalized inverse of G from B-inverse, IUseBI=4.

 GradGradGradGradGradGradGradGradGradGradGradGradGradGradGradGradGradGrad
 Berny optimization.
 Internal  Forces:  Max     0.044837340 RMS     0.039467529
 Search for a saddle point.
 Step number   1 out of a maximum of  100
 All quantities printed in internal units (Hartrees-Bohrs-Radians)
 Swapping is turned off.
 Second derivative matrix not updated -- analytic derivatives used.
 The second derivative matrix:
                          R1        R2        A1
           R1           0.13585
           R2          -0.01183   0.66547
           A1           0.02484  -0.00192   0.14915
 ITU=  0
     Eigenvalues ---    0.11666   0.16807   0.66574
 Eigenvectors required to have negative eigenvalues:
                          R1        A1        R2
   1                    0.79477  -0.60673   0.01501
 RFO step:  Lambda0=1.168349624D-01 Lambda=-1.68863711D-02.
 Linear search not attempted -- option 19 set.
 Maximum step size (   0.300) exceeded in Quadratic search.
    -- Step size scaled by   0.754
 Iteration  1 RMS(Cart)=  0.12193854 RMS(Int)=  0.05869369
 Iteration  2 RMS(Cart)=  0.07622641 RMS(Int)=  0.00324839
 Iteration  3 RMS(Cart)=  0.00233711 RMS(Int)=  0.00000047
 Iteration  4 RMS(Cart)=  0.00000037 RMS(Int)=  0.00000000
 ClnCor:  largest displacement from symmetrization is 2.22D-15 for atom     1.
 Variable       Old X    -DE/DX   Delta X   Delta X   Delta X     New X
                                 (Linear)    (Quad)   (Total)
    R1        3.40047  -0.03528   0.00000   0.04251   0.04251   3.44298
    R2        1.76390   0.04484   0.00000   0.05015   0.05015   1.81405
    A1        1.97514  -0.03765   0.00000  -0.29271  -0.29271   1.68243
         Item               Value     Threshold  Converged?
 Maximum Force            0.044837     0.000450     NO 
 RMS     Force            0.039468     0.000300     NO 
 Maximum Displacement     0.197601     0.001800     NO 
 RMS     Displacement     0.193177     0.001200     NO 
 Predicted change in Energy=-4.726969D-03
 GradGradGradGradGradGradGradGradGradGradGradGradGradGradGradGradGradGrad

                          Input orientation:                          
 ---------------------------------------------------------------------
 Center     Atomic      Atomic             Coordinates (Angstroms)
 Number     Number       Type             X           Y           Z
 ---------------------------------------------------------------------
      1          8           0        1.939973    2.788461    1.373033
      2         17           0        2.756625    2.402783    2.955377
      3          1           0        2.676023    3.268887    0.987115
 ---------------------------------------------------------------------
                    Distance matrix (angstroms):
                    1          2          3
     1  O    0.000000
     2  Cl   1.821945   0.000000
     3  H    0.959954   2.151904   0.000000
 Stoichiometry    ClHO
 Framework group  CS[SG(ClHO)]
 Deg. of freedom     3
 Full point group                 CS      NOp   2
 Largest Abelian subgroup         CS      NOp   2
 Largest concise Abelian subgroup C1      NOp   1
                         Standard orientation:                         
 ---------------------------------------------------------------------
 Center     Atomic      Atomic             Coordinates (Angstroms)
 Number     Number       Type             X           Y           Z
 ---------------------------------------------------------------------
      1          8           0        0.036691    1.187158    0.000000
      2         17           0        0.036691   -0.634786   -0.000000
      3          1           0       -0.917287    1.294103    0.000000
 ---------------------------------------------------------------------
 Rotational constants (GHZ):         590.6482005          13.1970211          12.9086005
 Standard basis: SVP (5D, 7F)
 There are    29 symmetry adapted cartesian basis functions of A'  symmetry.
 There are    10 symmetry adapted cartesian basis functions of A"  symmetry.
 There are    27 symmetry adapted basis functions of A'  symmetry.
 There are    10 symmetry adapted basis functions of A"  symmetry.
    37 basis functions,    69 primitive gaussians,    39 cartesian basis functions
    13 alpha electrons       13 beta electrons
       nuclear repulsion energy        48.0912197658 Hartrees.
 NAtoms=    3 NActive=    3 NUniq=    3 SFac= 1.00D+00 NAtFMM=   60 NAOKFM=F Big=F
 Integral buffers will be    131072 words long.
 Raffenetti 2 integral format.
 Two-electron integral symmetry is turned on.
 Nuclear repulsion after empirical dispersion term =       48.0896074277 Hartrees.
 One-electron integrals computed using PRISM.
 NBasis=    37 RedAO= T EigKep=  3.95D-02  NBF=    27    10
 NBsUse=    37 1.00D-06 EigRej= -1.00D+00 NBFU=    27    10
 Initial guess from the checkpoint file:  "/tmp/Gau-892.chk"
 B after Tr=     0.000000    0.000000   -0.000000
         Rot=    0.999964    0.000000   -0.000000   -0.008430 Ang=  -0.97 deg.
 Initial guess orbital symmetries:
       Occupied  (A') (A') (A') (A') (A') (A") (A') (A') (A') (A')
                 (A") (A') (A")
       Virtual   (A') (A') (A') (A') (A') (A") (A') (A') (A") (A')
                 (A") (A') (A") (A') (A') (A') (A") (A') (A') (A")
                 (A') (A") (A') (A')
 ExpMin= 1.22D-01 ExpMax= 1.04D+04 ExpMxC= 1.57D+03 IAcc=2 IRadAn=         4 AccDes= 0.00D+00
 Harris functional with IExCor=  402 and IRadAn=       4 diagonalized for initial guess.
 HarFok:  IExCor=  402 AccDes= 0.00D+00 IRadAn=         4 IDoV= 1 UseB2=F ITyADJ=14
 ICtDFT=  3500011 ScaDFX=  1.000000  1.000000  1.000000  1.000000
 FoFCou: FMM=F IPFlag=           0 FMFlag=      100000 FMFlg1=           0
         NFxFlg=           0 DoJE=T BraDBF=F KetDBF=T FulRan=T
         wScrn=  0.000000 ICntrl=       500 IOpCl=  0 I1Cent=   200000004 NGrid=           0
         NMat0=    1 NMatS0=      1 NMatT0=    0 NMatD0=    1 NMtDS0=    0 NMtDT0=    0
 Petite list used in FoFCou.
 Keep R1 ints in memory in symmetry-blocked form, NReq=7153137.
 Requested convergence on RMS density matrix=1.00D-08 within 128 cycles.
 Requested convergence on MAX density matrix=1.00D-06.
 Requested convergence on             energy=1.00D-06.
 No special actions if energy rises.
 Integral accuracy reduced to 1.0D-05 until final iterations.
 Initial convergence to 1.0D-05 achieved.  Increase integral accuracy.
 SCF Done:  E(RB3LYP) =  -535.756342192     A.U. after   13 cycles
            NFock= 13  Conv=0.22D-08     -V/T= 2.0028
 Calling FoFJK, ICntrl=      2127 FMM=F ISym2X=1 I1Cent= 0 IOpClX= 0 NMat=1 NMatS=1 NMatT=0.
 ***** Axes restored to original set *****
 -------------------------------------------------------------------
 Center     Atomic                   Forces (Hartrees/Bohr)
 Number     Number              X              Y              Z
 -------------------------------------------------------------------
      1        8           0.007770543   -0.012872027    0.035194480
      2       17          -0.015720919    0.005075057   -0.025319313
      3        1           0.007950376    0.007796970   -0.009875166
 -------------------------------------------------------------------
 Cartesian Forces:  Max     0.035194480 RMS     0.016997428

 GradGradGradGradGradGradGradGradGradGradGradGradGradGradGradGradGradGrad
 Berny optimization.
 FormGI is forming the generalized inverse of G from B-inverse, IUseBI=4.
 Internal  Forces:  Max     0.030110741 RMS     0.019905411
 Search for a saddle point.
 Step number   2 out of a maximum of  100
 All quantities printed in internal units (Hartrees-Bohrs-Radians)
 Swapping is turned off.
 Update second derivatives using D2CorX and points    1    2
 The second derivative matrix:
                          R1        R2        A1
           R1           0.13676
           R2          -0.01147   0.66542
           A1           0.03557   0.00688   0.16683
 ITU=  0  0
     Eigenvalues ---    0.11286   0.19041   0.66574
 Eigenvectors required to have negative eigenvalues:
                          R1        A1        R2
   1                   -0.83331   0.55227  -0.02417
 RFO step:  Lambda0=1.202904094D-01 Lambda=-7.33820062D-04.
 Linear search not attempted -- option 19 set.
 Iteration  1 RMS(Cart)=  0.04448350 RMS(Int)=  0.00137046
 Iteration  2 RMS(Cart)=  0.00137719 RMS(Int)=  0.00000078
 Iteration  3 RMS(Cart)=  0.00000080 RMS(Int)=  0.00000000
 ClnCor:  largest displacement from symmetrization is 3.32D-15 for atom     3.
 Variable       Old X    -DE/DX   Delta X   Delta X   Delta X     New X
                                 (Linear)    (Quad)   (Total)
    R1        3.44298  -0.03011   0.00000   0.01670   0.01670   3.45967
    R2        1.81405   0.01397   0.00000   0.02324   0.02324   1.83729
    A1        1.68243   0.00932   0.00000  -0.06662  -0.06662   1.61582
         Item               Value     Threshold  Converged?
 Maximum Force            0.030111     0.000450     NO 
 RMS     Force            0.019905     0.000300     NO 
 Maximum Displacement     0.046239     0.001800     NO 
 RMS     Displacement     0.045242     0.001200     NO 
 Predicted change in Energy= 1.313423D-03
 GradGradGradGradGradGradGradGradGradGradGradGradGradGradGradGradGradGrad

                          Input orientation:                          
 ---------------------------------------------------------------------
 Center     Atomic      Atomic             Coordinates (Angstroms)
 Number     Number       Type             X           Y           Z
 ---------------------------------------------------------------------
      1          8           0        1.918788    2.784853    1.361777
      2         17           0        2.764459    2.412057    2.942164
      3          1           0        2.689374    3.263221    1.011584
 ---------------------------------------------------------------------
                    Distance matrix (angstroms):
                    1          2          3
     1  O    0.000000
     2  Cl   1.830781   0.000000
     3  H    0.972252   2.111222   0.000000
 Stoichiometry    ClHO
 Framework group  CS[SG(ClHO)]
 Deg. of freedom     3
 Full point group                 CS      NOp   2
 Largest Abelian subgroup         CS      NOp   2
 Largest concise Abelian subgroup C1      NOp   1
                         Standard orientation:                         
 ---------------------------------------------------------------------
 Center     Atomic      Atomic             Coordinates (Angstroms)
 Number     Number       Type             X           Y           Z
 ---------------------------------------------------------------------
      1          8           0        0.037356    1.195366   -0.000000
      2         17           0        0.037356   -0.635415    0.000000
      3          1           0       -0.933910    1.239125    0.000000
 ---------------------------------------------------------------------
 Rotational constants (GHZ):         567.2963612          13.1278019          12.8308826
 Standard basis: SVP (5D, 7F)
 There are    29 symmetry adapted cartesian basis functions of A'  symmetry.
 There are    10 symmetry adapted cartesian basis functions of A"  symmetry.
 There are    27 symmetry adapted basis functions of A'  symmetry.
 There are    10 symmetry adapted basis functions of A"  symmetry.
    37 basis functions,    69 primitive gaussians,    39 cartesian basis functions
    13 alpha electrons       13 beta electrons
       nuclear repulsion energy        47.9253350961 Hartrees.
 NAtoms=    3 NActive=    3 NUniq=    3 SFac= 1.00D+00 NAtFMM=   60 NAOKFM=F Big=F
 Integral buffers will be    131072 words long.
 Raffenetti 2 integral format.
 Two-electron integral symmetry is turned on.
 Nuclear repulsion after empirical dispersion term =       47.9237203662 Hartrees.
 One-electron integrals computed using PRISM.
 NBasis=    37 RedAO= T EigKep=  4.00D-02  NBF=    27    10
 NBsUse=    37 1.00D-06 EigRej= -1.00D+00 NBFU=    27    10
 Initial guess from the checkpoint file:  "/tmp/Gau-892.chk"
 B after Tr=     0.000000   -0.000000    0.000000
         Rot=    0.999998   -0.000000    0.000000   -0.001807 Ang=  -0.21 deg.
 Initial guess orbital symmetries:
       Occupied  (A') (A') (A') (A') (A') (A") (A') (A') (A') (A')
                 (A") (A') (A")
       Virtual   (A') (A') (A') (A') (A') (A") (A') (A') (A") (A')
                 (A") (A') (A") (A') (A') (A') (A") (A') (A') (A")
                 (A') (A') (A") (A')
 ExpMin= 1.22D-01 ExpMax= 1.04D+04 ExpMxC= 1.57D+03 IAcc=2 IRadAn=         4 AccDes= 0.00D+00
 Harris functional with IExCor=  402 and IRadAn=       4 diagonalized for initial guess.
 HarFok:  IExCor=  402 AccDes= 0.00D+00 IRadAn=         4 IDoV= 1 UseB2=F ITyADJ=14
 ICtDFT=  3500011 ScaDFX=  1.000000  1.000000  1.000000  1.000000
 FoFCou: FMM=F IPFlag=           0 FMFlag=      100000 FMFlg1=           0
         NFxFlg=           0 DoJE=T BraDBF=F KetDBF=T FulRan=T
         wScrn=  0.000000 ICntrl=       500 IOpCl=  0 I1Cent=   200000004 NGrid=           0
         NMat0=    1 NMatS0=      1 NMatT0=    0 NMatD0=    1 NMtDS0=    0 NMtDT0=    0
 Petite list used in FoFCou.
 Keep R1 ints in memory in symmetry-blocked form, NReq=7153137.
 Requested convergence on RMS density matrix=1.00D-08 within 128 cycles.
 Requested convergence on MAX density matrix=1.00D-06.
 Requested convergence on             energy=1.00D-06.
 No special actions if energy rises.
 Integral accuracy reduced to 1.0D-05 until final iterations.
 Initial convergence to 1.0D-05 achieved.  Increase integral accuracy.
 SCF Done:  E(RB3LYP) =  -535.755035767     A.U. after   12 cycles
            NFock= 12  Conv=0.18D-08     -V/T= 2.0028
 Calling FoFJK, ICntrl=      2127 FMM=F ISym2X=1 I1Cent= 0 IOpClX= 0 NMat=1 NMatS=1 NMatT=0.
 ***** Axes restored to original set *****
 -------------------------------------------------------------------
 Center     Atomic                   Forces (Hartrees/Bohr)
 Number     Number              X              Y              Z
 -------------------------------------------------------------------
      1        8           0.022357186   -0.005835334    0.032982846
      2       17          -0.018110183    0.002986698   -0.022909222
      3        1          -0.004247003    0.002848636   -0.010073624
 -------------------------------------------------------------------
 Cartesian Forces:  Max     0.032982846 RMS     0.017033054

 GradGradGradGradGradGradGradGradGradGradGradGradGradGradGradGradGradGrad
 Berny optimization.
 FormGI is forming the generalized inverse of G from B-inverse, IUseBI=4.
 Internal  Forces:  Max     0.028749859 RMS     0.020418625
 Search for a saddle point.
 Step number   3 out of a maximum of  100
 All quantities printed in internal units (Hartrees-Bohrs-Radians)
 Swapping is turned off.
 Update second derivatives using D2CorX and points    1    2    3
 The second derivative matrix:
                          R1        R2        A1
           R1           0.13074
           R2          -0.02328   0.64415
           A1           0.04508   0.03419   0.19146
 ITU=  0  0  0
     Eigenvalues ---    0.10425   0.21461   0.64748
 Eigenvectors required to have negative eigenvalues:
                          R1        A1        R2
   1                    0.87514  -0.47906   0.06807
 RFO step:  Lambda0=1.148451681D-01 Lambda=-1.02944974D-04.
 Linear search not attempted -- option 19 set.
 Iteration  1 RMS(Cart)=  0.01622752 RMS(Int)=  0.00002541
 Iteration  2 RMS(Cart)=  0.00002718 RMS(Int)=  0.00000000
 Iteration  3 RMS(Cart)=  0.00000000 RMS(Int)=  0.00000000
 ClnCor:  largest displacement from symmetrization is 1.09D-15 for atom     1.
 Variable       Old X    -DE/DX   Delta X   Delta X   Delta X     New X
                                 (Linear)    (Quad)   (Total)
    R1        3.45967  -0.02875   0.00000   0.02614   0.02614   3.48582
    R2        1.83729   0.00166   0.00000   0.00704   0.00704   1.84433
    A1        1.61582   0.02053   0.00000   0.00735   0.00735   1.62317
         Item               Value     Threshold  Converged?
 Maximum Force            0.028750     0.000450     NO 
 RMS     Force            0.020419     0.000300     NO 
 Maximum Displacement     0.020256     0.001800     NO 
 RMS     Displacement     0.016243     0.001200     NO 
 Predicted change in Energy= 6.609809D-04
 GradGradGradGradGradGradGradGradGradGradGradGradGradGradGradGradGradGrad

                          Input orientation:                          
 ---------------------------------------------------------------------
 Center     Atomic      Atomic             Coordinates (Angstroms)
 Number     Number       Type             X           Y           Z
 ---------------------------------------------------------------------
      1          8           0        1.917682    2.785604    1.359133
      2         17           0        2.766132    2.407850    2.952884
      3          1           0        2.688807    3.266677    1.003509
 ---------------------------------------------------------------------
                    Distance matrix (angstroms):
                    1          2          3
     1  O    0.000000
     2  Cl   1.844615   0.000000
     3  H    0.975979   2.131578   0.000000
 Stoichiometry    ClHO
 Framework group  CS[SG(ClHO)]
 Deg. of freedom     3
 Full point group                 CS      NOp   2
 Largest Abelian subgroup         CS      NOp   2
 Largest concise Abelian subgroup C1      NOp   1
                         Standard orientation:                         
 ---------------------------------------------------------------------
 Center     Atomic      Atomic             Coordinates (Angstroms)
 Number     Number       Type             X           Y           Z
 ---------------------------------------------------------------------
      1          8           0        0.037486    1.204130   -0.000000
      2         17           0        0.037486   -0.640486   -0.000000
      3          1           0       -0.937155    1.255220    0.000000
 ---------------------------------------------------------------------
 Rotational constants (GHZ):         563.6386997          12.9255924          12.6358226
 Standard basis: SVP (5D, 7F)
 There are    29 symmetry adapted cartesian basis functions of A'  symmetry.
 There are    10 symmetry adapted cartesian basis functions of A"  symmetry.
 There are    27 symmetry adapted basis functions of A'  symmetry.
 There are    10 symmetry adapted basis functions of A"  symmetry.
    37 basis functions,    69 primitive gaussians,    39 cartesian basis functions
    13 alpha electrons       13 beta electrons
       nuclear repulsion energy        47.5731997753 Hartrees.
 NAtoms=    3 NActive=    3 NUniq=    3 SFac= 1.00D+00 NAtFMM=   60 NAOKFM=F Big=F
 Integral buffers will be    131072 words long.
 Raffenetti 2 integral format.
 Two-electron integral symmetry is turned on.
 Nuclear repulsion after empirical dispersion term =       47.5715864863 Hartrees.
 One-electron integrals computed using PRISM.
 NBasis=    37 RedAO= T EigKep=  4.09D-02  NBF=    27    10
 NBsUse=    37 1.00D-06 EigRej= -1.00D+00 NBFU=    27    10
 Initial guess from the checkpoint file:  "/tmp/Gau-892.chk"
 B after Tr=    -0.000000    0.000000   -0.000000
         Rot=    1.000000    0.000000   -0.000000    0.000274 Ang=   0.03 deg.
 Initial guess orbital symmetries:
       Occupied  (A') (A') (A') (A') (A') (A") (A') (A') (A') (A')
                 (A") (A') (A")
       Virtual   (A') (A') (A') (A') (A') (A") (A') (A') (A") (A')
                 (A") (A') (A") (A') (A') (A') (A") (A') (A') (A")
                 (A') (A') (A") (A')
 ExpMin= 1.22D-01 ExpMax= 1.04D+04 ExpMxC= 1.57D+03 IAcc=2 IRadAn=         4 AccDes= 0.00D+00
 Harris functional with IExCor=  402 and IRadAn=       4 diagonalized for initial guess.
 HarFok:  IExCor=  402 AccDes= 0.00D+00 IRadAn=         4 IDoV= 1 UseB2=F ITyADJ=14
 ICtDFT=  3500011 ScaDFX=  1.000000  1.000000  1.000000  1.000000
 FoFCou: FMM=F IPFlag=           0 FMFlag=      100000 FMFlg1=           0
         NFxFlg=           0 DoJE=T BraDBF=F KetDBF=T FulRan=T
         wScrn=  0.000000 ICntrl=       500 IOpCl=  0 I1Cent=   200000004 NGrid=           0
         NMat0=    1 NMatS0=      1 NMatT0=    0 NMatD0=    1 NMtDS0=    0 NMtDT0=    0
 Petite list used in FoFCou.
 Keep R1 ints in memory in symmetry-blocked form, NReq=7153137.
 Requested convergence on RMS density matrix=1.00D-08 within 128 cycles.
 Requested convergence on MAX density matrix=1.00D-06.
 Requested convergence on             energy=1.00D-06.
 No special actions if energy rises.
 Integral accuracy reduced to 1.0D-05 until final iterations.
 Initial convergence to 1.0D-05 achieved.  Increase integral accuracy.
 SCF Done:  E(RB3LYP) =  -535.754373544     A.U. after   10 cycles
            NFock= 10  Conv=0.57D-08     -V/T= 2.0028
 Calling FoFJK, ICntrl=      2127 FMM=F ISym2X=1 I1Cent= 0 IOpClX= 0 NMat=1 NMatS=1 NMatT=0.
 ***** Axes restored to original set *****
 -------------------------------------------------------------------
 Center     Atomic                   Forces (Hartrees/Bohr)
 Number     Number              X              Y              Z
 -------------------------------------------------------------------
      1        8           0.025309326   -0.005134795    0.034118758
      2       17          -0.019165990    0.004218312   -0.026559033
      3        1          -0.006143336    0.000916484   -0.007559725
 -------------------------------------------------------------------
 Cartesian Forces:  Max     0.034118758 RMS     0.018309862

 GradGradGradGradGradGradGradGradGradGradGradGradGradGradGradGradGradGrad
 Berny optimization.
 FormGI is forming the generalized inverse of G from B-inverse, IUseBI=4.
 Internal  Forces:  Max     0.032626809 RMS     0.021475385
 Search for a saddle point.
 Step number   4 out of a maximum of  100
 All quantities printed in internal units (Hartrees-Bohrs-Radians)
 Swapping is turned off.
 Update second derivatives using D2CorX and points    1    2    3    4
 The second derivative matrix:
                          R1        R2        A1
           R1           0.14781
           R2          -0.04618   0.61825
           A1           0.04600   0.02241   0.18806
 ITU=  0  0  0  0
     Eigenvalues ---    0.11259   0.21805   0.62348
 Eigenvectors required to have negative eigenvalues:
                          R1        A1        R2
   1                    0.83607  -0.53939   0.10026
 RFO step:  Lambda0=1.236811151D-01 Lambda=-4.08681201D-05.
 Linear search not attempted -- option 19 set.
 Iteration  1 RMS(Cart)=  0.01205887 RMS(Int)=  0.00009496
 Iteration  2 RMS(Cart)=  0.00008795 RMS(Int)=  0.00000000
 Iteration  3 RMS(Cart)=  0.00000000 RMS(Int)=  0.00000000
 ClnCor:  largest displacement from symmetrization is 1.33D-15 for atom     1.
 Variable       Old X    -DE/DX   Delta X   Delta X   Delta X     New X
                                 (Linear)    (Quad)   (Total)
    R1        3.48582  -0.03263   0.00000   0.00374   0.00374   3.48955
    R2        1.84433  -0.00165   0.00000   0.00448   0.00448   1.84881
    A1        1.62317   0.01779   0.00000  -0.01726  -0.01726   1.60591
         Item               Value     Threshold  Converged?
 Maximum Force            0.032627     0.000450     NO 
 RMS     Force            0.021475     0.000300     NO 
 Maximum Displacement     0.013099     0.001800     NO 
 RMS     Displacement     0.012106     0.001200     NO 
 Predicted change in Energy= 4.659448D-04
 GradGradGradGradGradGradGradGradGradGradGradGradGradGradGradGradGradGrad

                          Input orientation:                          
 ---------------------------------------------------------------------
 Center     Atomic      Atomic             Coordinates (Angstroms)
 Number     Number       Type             X           Y           Z
 ---------------------------------------------------------------------
      1          8           0        1.912554    2.784898    1.356042
      2         17           0        2.768138    2.410433    2.949043
      3          1           0        2.691928    3.264799    1.010440
 ---------------------------------------------------------------------
                    Distance matrix (angstroms):
                    1          2          3
     1  O    0.000000
     2  Cl   1.846592   0.000000
     3  H    0.978350   2.119889   0.000000
 Stoichiometry    ClHO
 Framework group  CS[SG(ClHO)]
 Deg. of freedom     3
 Full point group                 CS      NOp   2
 Largest Abelian subgroup         CS      NOp   2
 Largest concise Abelian subgroup C1      NOp   1
                         Standard orientation:                         
 ---------------------------------------------------------------------
 Center     Atomic      Atomic             Coordinates (Angstroms)
 Number     Number       Type             X           Y           Z
 ---------------------------------------------------------------------
      1          8           0        0.037606    1.206066    0.000000
      2         17           0        0.037606   -0.640526   -0.000000
      3          1           0       -0.940142    1.240415   -0.000000
 ---------------------------------------------------------------------
 Rotational constants (GHZ):         559.4291944          12.9125399          12.6212214
 Standard basis: SVP (5D, 7F)
 There are    29 symmetry adapted cartesian basis functions of A'  symmetry.
 There are    10 symmetry adapted cartesian basis functions of A"  symmetry.
 There are    27 symmetry adapted basis functions of A'  symmetry.
 There are    10 symmetry adapted basis functions of A"  symmetry.
    37 basis functions,    69 primitive gaussians,    39 cartesian basis functions
    13 alpha electrons       13 beta electrons
       nuclear repulsion energy        47.5441885874 Hartrees.
 NAtoms=    3 NActive=    3 NUniq=    3 SFac= 1.00D+00 NAtFMM=   60 NAOKFM=F Big=F
 Integral buffers will be    131072 words long.
 Raffenetti 2 integral format.
 Two-electron integral symmetry is turned on.
 Nuclear repulsion after empirical dispersion term =       47.5425746175 Hartrees.
 One-electron integrals computed using PRISM.
 NBasis=    37 RedAO= T EigKep=  4.10D-02  NBF=    27    10
 NBsUse=    37 1.00D-06 EigRej= -1.00D+00 NBFU=    27    10
 Initial guess from the checkpoint file:  "/tmp/Gau-892.chk"
 B after Tr=     0.000000    0.000000    0.000000
         Rot=    1.000000    0.000000   -0.000000   -0.000435 Ang=  -0.05 deg.
 Initial guess orbital symmetries:
       Occupied  (A') (A') (A') (A') (A') (A") (A') (A') (A') (A')
                 (A") (A') (A")
       Virtual   (A') (A') (A') (A') (A') (A") (A') (A') (A") (A')
                 (A") (A') (A") (A') (A') (A') (A") (A') (A') (A")
                 (A') (A') (A") (A')
 Keep R1 ints in memory in symmetry-blocked form, NReq=7153137.
 Requested convergence on RMS density matrix=1.00D-08 within 128 cycles.
 Requested convergence on MAX density matrix=1.00D-06.
 Requested convergence on             energy=1.00D-06.
 No special actions if energy rises.
 SCF Done:  E(RB3LYP) =  -535.753908362     A.U. after    9 cycles
            NFock=  9  Conv=0.16D-08     -V/T= 2.0028
 Calling FoFJK, ICntrl=      2127 FMM=F ISym2X=1 I1Cent= 0 IOpClX= 0 NMat=1 NMatS=1 NMatT=0.
 ***** Axes restored to original set *****
 -------------------------------------------------------------------
 Center     Atomic                   Forces (Hartrees/Bohr)
 Number     Number              X              Y              Z
 -------------------------------------------------------------------
      1        8           0.028268217   -0.003849719    0.033981568
      2       17          -0.019714729    0.003653731   -0.025819604
      3        1          -0.008553487    0.000195989   -0.008161964
 -------------------------------------------------------------------
 Cartesian Forces:  Max     0.033981568 RMS     0.018788737

 GradGradGradGradGradGradGradGradGradGradGradGradGradGradGradGradGradGrad
 Berny optimization.
 FormGI is forming the generalized inverse of G from B-inverse, IUseBI=4.
 Internal  Forces:  Max     0.032149540 RMS     0.022180284
 Search for a saddle point.
 Step number   5 out of a maximum of  100
 All quantities printed in internal units (Hartrees-Bohrs-Radians)
 Swapping is turned off.
 Update second derivatives using D2CorX and points    2    3    4    5
 The second derivative matrix:
                          R1        R2        A1
           R1           0.14731
           R2          -0.04665   0.61786
           A1           0.04744   0.02363   0.18402
 ITU=  0  0  0  0
     Eigenvalues ---    0.10951   0.21641   0.62326
 Eigenvectors required to have negative eigenvalues:
                          R1        A1        R2
   1                    0.82428  -0.55700   0.10153
 RFO step:  Lambda0=1.216378206D-01 Lambda=-3.47153400D-06.
 Linear search not attempted -- option 19 set.
 Iteration  1 RMS(Cart)=  0.00399024 RMS(Int)=  0.00001007
 Iteration  2 RMS(Cart)=  0.00000813 RMS(Int)=  0.00000000
 Iteration  3 RMS(Cart)=  0.00000000 RMS(Int)=  0.00000000
 ClnCor:  largest displacement from symmetrization is 2.04D-15 for atom     1.
 Variable       Old X    -DE/DX   Delta X   Delta X   Delta X     New X
                                 (Linear)    (Quad)   (Total)
    R1        3.48955  -0.03215   0.00000   0.00105   0.00105   3.49061
    R2        1.84881  -0.00383   0.00000   0.00047   0.00047   1.84928
    A1        1.60591   0.02068   0.00000  -0.00554  -0.00554   1.60037
         Item               Value     Threshold  Converged?
 Maximum Force            0.032150     0.000450     NO 
 RMS     Force            0.022180     0.000300     NO 
 Maximum Displacement     0.004578     0.001800     NO 
 RMS     Displacement     0.003994     0.001200     NO 
 Predicted change in Energy= 1.528175D-04
 GradGradGradGradGradGradGradGradGradGradGradGradGradGradGradGradGradGrad

                          Input orientation:                          
 ---------------------------------------------------------------------
 Center     Atomic      Atomic             Coordinates (Angstroms)
 Number     Number       Type             X           Y           Z
 ---------------------------------------------------------------------
      1          8           0        1.911099    2.784793    1.354956
      2         17           0        2.768781    2.411310    2.947706
      3          1           0        2.692740    3.264028    1.012863
 ---------------------------------------------------------------------
                    Distance matrix (angstroms):
                    1          2          3
     1  O    0.000000
     2  Cl   1.847149   0.000000
     3  H    0.978599   2.115781   0.000000
 Stoichiometry    ClHO
 Framework group  CS[SG(ClHO)]
 Deg. of freedom     3
 Full point group                 CS      NOp   2
 Largest Abelian subgroup         CS      NOp   2
 Largest concise Abelian subgroup C1      NOp   1
                         Standard orientation:                         
 ---------------------------------------------------------------------
 Center     Atomic      Atomic             Coordinates (Angstroms)
 Number     Number       Type             X           Y           Z
 ---------------------------------------------------------------------
      1          8           0        0.037622    1.206638    0.000000
      2         17           0        0.037622   -0.640511   -0.000000
      3          1           0       -0.940549    1.235578    0.000000
 ---------------------------------------------------------------------
 Rotational constants (GHZ):         558.7415359          12.9094442          12.6179136
 Standard basis: SVP (5D, 7F)
 There are    29 symmetry adapted cartesian basis functions of A'  symmetry.
 There are    10 symmetry adapted cartesian basis functions of A"  symmetry.
 There are    27 symmetry adapted basis functions of A'  symmetry.
 There are    10 symmetry adapted basis functions of A"  symmetry.
    37 basis functions,    69 primitive gaussians,    39 cartesian basis functions
    13 alpha electrons       13 beta electrons
       nuclear repulsion energy        47.5395755453 Hartrees.
 NAtoms=    3 NActive=    3 NUniq=    3 SFac= 1.00D+00 NAtFMM=   60 NAOKFM=F Big=F
 Integral buffers will be    131072 words long.
 Raffenetti 2 integral format.
 Two-electron integral symmetry is turned on.
 Nuclear repulsion after empirical dispersion term =       47.5379613477 Hartrees.
 One-electron integrals computed using PRISM.
 NBasis=    37 RedAO= T EigKep=  4.10D-02  NBF=    27    10
 NBsUse=    37 1.00D-06 EigRej= -1.00D+00 NBFU=    27    10
 Initial guess from the checkpoint file:  "/tmp/Gau-892.chk"
 B after Tr=    -0.000000   -0.000000   -0.000000
         Rot=    1.000000    0.000000   -0.000000   -0.000125 Ang=  -0.01 deg.
 Initial guess orbital symmetries:
       Occupied  (A') (A') (A') (A') (A') (A") (A') (A') (A') (A')
                 (A") (A') (A")
       Virtual   (A') (A') (A') (A') (A') (A") (A') (A') (A") (A')
                 (A") (A') (A") (A') (A') (A') (A") (A') (A') (A")
                 (A') (A') (A") (A')
 Keep R1 ints in memory in symmetry-blocked form, NReq=7153137.
 Requested convergence on RMS density matrix=1.00D-08 within 128 cycles.
 Requested convergence on MAX density matrix=1.00D-06.
 Requested convergence on             energy=1.00D-06.
 No special actions if energy rises.
 SCF Done:  E(RB3LYP) =  -535.753755591     A.U. after    8 cycles
            NFock=  8  Conv=0.33D-08     -V/T= 2.0028
 Calling FoFJK, ICntrl=      2127 FMM=F ISym2X=1 I1Cent= 0 IOpClX= 0 NMat=1 NMatS=1 NMatT=0.
 ***** Axes restored to original set *****
 -------------------------------------------------------------------
 Center     Atomic                   Forces (Hartrees/Bohr)
 Number     Number              X              Y              Z
 -------------------------------------------------------------------
      1        8           0.028826947   -0.003678929    0.034112948
      2       17          -0.019881286    0.003469711   -0.025567474
      3        1          -0.008945661    0.000209219   -0.008545474
 -------------------------------------------------------------------
 Cartesian Forces:  Max     0.034112948 RMS     0.018921811

 GradGradGradGradGradGradGradGradGradGradGradGradGradGradGradGradGradGrad
 Berny optimization.
 FormGI is forming the generalized inverse of G from B-inverse, IUseBI=4.
 Internal  Forces:  Max     0.031979501 RMS     0.022408235
 Search for a saddle point.
 Step number   6 out of a maximum of  100
 All quantities printed in internal units (Hartrees-Bohrs-Radians)
 Swapping is turned off.
 Second derivative matrix not updated -- analytic derivatives used.
 The second derivative matrix:
                          R1        R2        A1
           R1           0.14731
           R2          -0.04665   0.61786
           A1           0.04744   0.02363   0.18402
 ITU=  0  0  0  0
     Eigenvalues ---    0.10951   0.21641   0.62326
 Eigenvectors required to have negative eigenvalues:
                          R1        A1        R2
   1                    0.82428  -0.55700   0.10153
 RFO step:  Lambda0=1.218709150D-01 Lambda=-2.12376231D-08.
 Linear search not attempted -- option 19 set.
 Iteration  1 RMS(Cart)=  0.00011322 RMS(Int)=  0.00000001
 Iteration  2 RMS(Cart)=  0.00000001 RMS(Int)=  0.00000000
 ClnCor:  largest displacement from symmetrization is 1.60D-15 for atom     1.
 Variable       Old X    -DE/DX   Delta X   Delta X   Delta X     New X
                                 (Linear)    (Quad)   (Total)
    R1        3.49061  -0.03198   0.00000   0.00018   0.00018   3.49079
    R2        1.84928  -0.00405   0.00000  -0.00016  -0.00016   1.84912
    A1        1.60037   0.02162   0.00000  -0.00010  -0.00010   1.60028
         Item               Value     Threshold  Converged?
 Maximum Force            0.031980     0.000450     NO 
 RMS     Force            0.022408     0.000300     NO 
 Maximum Displacement     0.000128     0.001800     YES
 RMS     Displacement     0.000113     0.001200     YES
 Predicted change in Energy= 7.173749D-06
 GradGradGradGradGradGradGradGradGradGradGradGradGradGradGradGradGradGrad

                          Input orientation:                          
 ---------------------------------------------------------------------
 Center     Atomic      Atomic             Coordinates (Angstroms)
 Number     Number       Type             X           Y           Z
 ---------------------------------------------------------------------
      1          8           0        1.911095    2.784822    1.354888
      2         17           0        2.768810    2.411314    2.947724
      3          1           0        2.692716    3.263995    1.012913
 ---------------------------------------------------------------------
                    Distance matrix (angstroms):
                    1          2          3
     1  O    0.000000
     2  Cl   1.847244   0.000000
     3  H    0.978512   2.115739   0.000000
 Stoichiometry    ClHO
 Framework group  CS[SG(ClHO)]
 Deg. of freedom     3
 Full point group                 CS      NOp   2
 Largest Abelian subgroup         CS      NOp   2
 Largest concise Abelian subgroup C1      NOp   1
                         Standard orientation:                         
 ---------------------------------------------------------------------
 Center     Atomic      Atomic             Coordinates (Angstroms)
 Number     Number       Type             X           Y           Z
 ---------------------------------------------------------------------
      1          8           0        0.037619    1.206704    0.000000
      2         17           0        0.037619   -0.640540   -0.000000
      3          1           0       -0.940468    1.235546    0.000000
 ---------------------------------------------------------------------
 Rotational constants (GHZ):         558.8337292          12.9082120          12.6167834
 Standard basis: SVP (5D, 7F)
 There are    29 symmetry adapted cartesian basis functions of A'  symmetry.
 There are    10 symmetry adapted cartesian basis functions of A"  symmetry.
 There are    27 symmetry adapted basis functions of A'  symmetry.
 There are    10 symmetry adapted basis functions of A"  symmetry.
    37 basis functions,    69 primitive gaussians,    39 cartesian basis functions
    13 alpha electrons       13 beta electrons
       nuclear repulsion energy        47.5380490205 Hartrees.
 NAtoms=    3 NActive=    3 NUniq=    3 SFac= 1.00D+00 NAtFMM=   60 NAOKFM=F Big=F
 Integral buffers will be    131072 words long.
 Raffenetti 2 integral format.
 Two-electron integral symmetry is turned on.
 Nuclear repulsion after empirical dispersion term =       47.5364348236 Hartrees.
 One-electron integrals computed using PRISM.
 NBasis=    37 RedAO= T EigKep=  4.10D-02  NBF=    27    10
 NBsUse=    37 1.00D-06 EigRej= -1.00D+00 NBFU=    27    10
 Initial guess from the checkpoint file:  "/tmp/Gau-892.chk"
 B after Tr=     0.000000   -0.000000    0.000000
         Rot=    1.000000    0.000000   -0.000000    0.000002 Ang=   0.00 deg.
 Initial guess orbital symmetries:
       Occupied  (A') (A') (A') (A') (A') (A") (A') (A') (A') (A')
                 (A") (A') (A")
       Virtual   (A') (A') (A') (A') (A') (A") (A') (A') (A") (A')
                 (A") (A') (A") (A') (A') (A') (A") (A') (A') (A")
                 (A') (A') (A") (A')
 Keep R1 ints in memory in symmetry-blocked form, NReq=7153137.
 Requested convergence on RMS density matrix=1.00D-08 within 128 cycles.
 Requested convergence on MAX density matrix=1.00D-06.
 Requested convergence on             energy=1.00D-06.
 No special actions if energy rises.
 SCF Done:  E(RB3LYP) =  -535.753748421     A.U. after    6 cycles
            NFock=  6  Conv=0.54D-08     -V/T= 2.0028
 Calling FoFJK, ICntrl=      2127 FMM=F ISym2X=1 I1Cent= 0 IOpClX= 0 NMat=1 NMatS=1 NMatT=0.
 ***** Axes restored to original set *****
 -------------------------------------------------------------------
 Center     Atomic                   Forces (Hartrees/Bohr)
 Number     Number              X              Y              Z
 -------------------------------------------------------------------
      1        8           0.028773642   -0.003723809    0.034162971
      2       17          -0.019891642    0.003472814   -0.025583629
      3        1          -0.008882000    0.000250995   -0.008579342
 -------------------------------------------------------------------
 Cartesian Forces:  Max     0.034162971 RMS     0.018925925

 GradGradGradGradGradGradGradGradGradGradGradGradGradGradGradGradGradGrad
 Berny optimization.
 FormGI is forming the generalized inverse of G from B-inverse, IUseBI=4.
 Internal  Forces:  Max     0.031998824 RMS     0.022415024
 Search for a saddle point.
 Step number   7 out of a maximum of  100
 All quantities printed in internal units (Hartrees-Bohrs-Radians)
 Swapping is turned off.
 Update second derivatives using D2CorX and points    4    5    7
 The second derivative matrix:
                          R1        R2        A1
           R1           0.14380
           R2          -0.04206   0.62194
           A1           0.05587  -0.00017   0.17987
 ITU=  0  0  0  0
     Eigenvalues ---    0.10090   0.21905   0.62567
 Eigenvectors required to have negative eigenvalues:
                          R1        A1        R2
   1                    0.81467  -0.57620   0.06557
 RFO step:  Lambda0=1.140856297D-01 Lambda=-6.80933499D-06.
 Linear search not attempted -- option 19 set.
 Iteration  1 RMS(Cart)=  0.00467306 RMS(Int)=  0.00001401
 Iteration  2 RMS(Cart)=  0.00000973 RMS(Int)=  0.00000000
 Iteration  3 RMS(Cart)=  0.00000000 RMS(Int)=  0.00000000
 ClnCor:  largest displacement from symmetrization is 1.68D-15 for atom     3.
 Variable       Old X    -DE/DX   Delta X   Delta X   Delta X     New X
                                 (Linear)    (Quad)   (Total)
    R1        3.49079  -0.03200   0.00000   0.00164   0.00164   3.49243
    R2        1.84912  -0.00397   0.00000  -0.00214  -0.00214   1.84698
    A1        1.60028   0.02162   0.00000  -0.00607  -0.00607   1.59421
         Item               Value     Threshold  Converged?
 Maximum Force            0.031999     0.000450     NO 
 RMS     Force            0.022415     0.000300     NO 
 Maximum Displacement     0.005719     0.001800     NO 
 RMS     Displacement     0.004674     0.001200     NO 
 Predicted change in Energy= 1.798450D-04
 GradGradGradGradGradGradGradGradGradGradGradGradGradGradGradGradGradGrad

                          Input orientation:                          
 ---------------------------------------------------------------------
 Center     Atomic      Atomic             Coordinates (Angstroms)
 Number     Number       Type             X           Y           Z
 ---------------------------------------------------------------------
      1          8           0        1.909954    2.785075    1.353304
      2         17           0        2.769595    2.412297    2.946282
      3          1           0        2.693072    3.262759    1.015939
 ---------------------------------------------------------------------
                    Distance matrix (angstroms):
                    1          2          3
     1  O    0.000000
     2  Cl   1.848114   0.000000
     3  H    0.977380   2.110774   0.000000
 Stoichiometry    ClHO
 Framework group  CS[SG(ClHO)]
 Deg. of freedom     3
 Full point group                 CS      NOp   2
 Largest Abelian subgroup         CS      NOp   2
 Largest concise Abelian subgroup C1      NOp   1
                         Standard orientation:                         
 ---------------------------------------------------------------------
 Center     Atomic      Atomic             Coordinates (Angstroms)
 Number     Number       Type             X           Y           Z
 ---------------------------------------------------------------------
      1          8           0        0.037581    1.207502    0.000000
      2         17           0        0.037581   -0.640612   -0.000000
      3          1           0       -0.939531    1.230382    0.000000
 ---------------------------------------------------------------------
 Rotational constants (GHZ):         559.7238294          12.9012501          12.6105848
 Standard basis: SVP (5D, 7F)
 There are    29 symmetry adapted cartesian basis functions of A'  symmetry.
 There are    10 symmetry adapted cartesian basis functions of A"  symmetry.
 There are    27 symmetry adapted basis functions of A'  symmetry.
 There are    10 symmetry adapted basis functions of A"  symmetry.
    37 basis functions,    69 primitive gaussians,    39 cartesian basis functions
    13 alpha electrons       13 beta electrons
       nuclear repulsion energy        47.5347175817 Hartrees.
 NAtoms=    3 NActive=    3 NUniq=    3 SFac= 1.00D+00 NAtFMM=   60 NAOKFM=F Big=F
 Integral buffers will be    131072 words long.
 Raffenetti 2 integral format.
 Two-electron integral symmetry is turned on.
 Nuclear repulsion after empirical dispersion term =       47.5331031361 Hartrees.
 One-electron integrals computed using PRISM.
 NBasis=    37 RedAO= T EigKep=  4.10D-02  NBF=    27    10
 NBsUse=    37 1.00D-06 EigRej= -1.00D+00 NBFU=    27    10
 Initial guess from the checkpoint file:  "/tmp/Gau-892.chk"
 B after Tr=     0.000000    0.000000   -0.000000
         Rot=    1.000000    0.000000   -0.000000   -0.000091 Ang=  -0.01 deg.
 Initial guess orbital symmetries:
       Occupied  (A') (A') (A') (A') (A') (A") (A') (A') (A') (A')
                 (A") (A') (A")
       Virtual   (A') (A') (A') (A') (A') (A") (A') (A') (A") (A')
                 (A") (A') (A") (A') (A') (A') (A") (A') (A') (A")
                 (A') (A') (A") (A')
 Keep R1 ints in memory in symmetry-blocked form, NReq=7153137.
 Requested convergence on RMS density matrix=1.00D-08 within 128 cycles.
 Requested convergence on MAX density matrix=1.00D-06.
 Requested convergence on             energy=1.00D-06.
 No special actions if energy rises.
 SCF Done:  E(RB3LYP) =  -535.753568996     A.U. after    8 cycles
            NFock=  8  Conv=0.54D-08     -V/T= 2.0028
 Calling FoFJK, ICntrl=      2127 FMM=F ISym2X=1 I1Cent= 0 IOpClX= 0 NMat=1 NMatS=1 NMatT=0.
 ***** Axes restored to original set *****
 -------------------------------------------------------------------
 Center     Atomic                   Forces (Hartrees/Bohr)
 Number     Number              X              Y              Z
 -------------------------------------------------------------------
      1        8           0.028357329   -0.004207916    0.034846014
      2       17          -0.020097687    0.003297717   -0.025386726
      3        1          -0.008259643    0.000910199   -0.009459287
 -------------------------------------------------------------------
 Cartesian Forces:  Max     0.034846014 RMS     0.019014309

 GradGradGradGradGradGradGradGradGradGradGradGradGradGradGradGradGradGrad
 Berny optimization.
 FormGI is forming the generalized inverse of G from B-inverse, IUseBI=4.
 Internal  Forces:  Max     0.031895885 RMS     0.022639848
 Search for a saddle point.
 Step number   8 out of a maximum of  100
 All quantities printed in internal units (Hartrees-Bohrs-Radians)
 Swapping is turned off.
 Update second derivatives using D2CorX and points    5    6    7    8
 The second derivative matrix:
                          R1        R2        A1
           R1           0.13783
           R2          -0.02565   0.59067
           A1           0.06336  -0.03958   0.19610
 ITU=  0  0  0  0
     Eigenvalues ---    0.09723   0.23053   0.59685
 Eigenvectors required to have negative eigenvalues:
                          R1        A1        R2
   1                    0.84206  -0.53939   0.00051
 RFO step:  Lambda0=1.109799622D-01 Lambda=-2.53381783D-05.
 Linear search not attempted -- option 19 set.
 Iteration  1 RMS(Cart)=  0.00545751 RMS(Int)=  0.00000279
 Iteration  2 RMS(Cart)=  0.00000326 RMS(Int)=  0.00000000
 Iteration  3 RMS(Cart)=  0.00000000 RMS(Int)=  0.00000000
 ClnCor:  largest displacement from symmetrization is 1.66D-15 for atom     1.
 Variable       Old X    -DE/DX   Delta X   Delta X   Delta X     New X
                                 (Linear)    (Quad)   (Total)
    R1        3.49243  -0.03190   0.00000   0.01064   0.01064   3.50306
    R2        1.84698  -0.00291   0.00000  -0.00433  -0.00433   1.84265
    A1        1.59421   0.02262   0.00000   0.00143   0.00143   1.59564
         Item               Value     Threshold  Converged?
 Maximum Force            0.031896     0.000450     NO 
 RMS     Force            0.022640     0.000300     NO 
 Maximum Displacement     0.006693     0.001800     NO 
 RMS     Displacement     0.005459     0.001200     NO 
 Predicted change in Energy= 3.102196D-04
 GradGradGradGradGradGradGradGradGradGradGradGradGradGradGradGradGradGrad

                          Input orientation:                          
 ---------------------------------------------------------------------
 Center     Atomic      Atomic             Coordinates (Angstroms)
 Number     Number       Type             X           Y           Z
 ---------------------------------------------------------------------
      1          8           0        1.910406    2.786249    1.351144
      2         17           0        2.770533    2.411066    2.949824
      3          1           0        2.691682    3.262816    1.014558
 ---------------------------------------------------------------------
                    Distance matrix (angstroms):
                    1          2          3
     1  O    0.000000
     2  Cl   1.853742   0.000000
     3  H    0.975089   2.115881   0.000000
 Stoichiometry    ClHO
 Framework group  CS[SG(ClHO)]
 Deg. of freedom     3
 Full point group                 CS      NOp   2
 Largest Abelian subgroup         CS      NOp   2
 Largest concise Abelian subgroup C1      NOp   1
                         Standard orientation:                         
 ---------------------------------------------------------------------
 Center     Atomic      Atomic             Coordinates (Angstroms)
 Number     Number       Type             X           Y           Z
 ---------------------------------------------------------------------
      1          8           0        0.037492    1.211131    0.000000
      2         17           0        0.037492   -0.642611   -0.000000
      3          1           0       -0.937296    1.235350    0.000000
 ---------------------------------------------------------------------
 Rotational constants (GHZ):         562.4374218          12.8220959          12.5363012
 Standard basis: SVP (5D, 7F)
 There are    29 symmetry adapted cartesian basis functions of A'  symmetry.
 There are    10 symmetry adapted cartesian basis functions of A"  symmetry.
 There are    27 symmetry adapted basis functions of A'  symmetry.
 There are    10 symmetry adapted basis functions of A"  symmetry.
    37 basis functions,    69 primitive gaussians,    39 cartesian basis functions
    13 alpha electrons       13 beta electrons
       nuclear repulsion energy        47.4163824101 Hartrees.
 NAtoms=    3 NActive=    3 NUniq=    3 SFac= 1.00D+00 NAtFMM=   60 NAOKFM=F Big=F
 Integral buffers will be    131072 words long.
 Raffenetti 2 integral format.
 Two-electron integral symmetry is turned on.
 Nuclear repulsion after empirical dispersion term =       47.4147683908 Hartrees.
 One-electron integrals computed using PRISM.
 NBasis=    37 RedAO= T EigKep=  4.11D-02  NBF=    27    10
 NBsUse=    37 1.00D-06 EigRej= -1.00D+00 NBFU=    27    10
 Initial guess from the checkpoint file:  "/tmp/Gau-892.chk"
 B after Tr=    -0.000000   -0.000000   -0.000000
         Rot=    1.000000    0.000000   -0.000000    0.000183 Ang=   0.02 deg.
 Initial guess orbital symmetries:
       Occupied  (A') (A') (A') (A') (A') (A") (A') (A') (A') (A')
                 (A") (A') (A")
       Virtual   (A') (A') (A') (A') (A') (A") (A') (A') (A") (A')
                 (A") (A') (A") (A') (A') (A') (A") (A') (A') (A")
                 (A') (A') (A") (A')
 Keep R1 ints in memory in symmetry-blocked form, NReq=7153137.
 Requested convergence on RMS density matrix=1.00D-08 within 128 cycles.
 Requested convergence on MAX density matrix=1.00D-06.
 Requested convergence on             energy=1.00D-06.
 No special actions if energy rises.
 SCF Done:  E(RB3LYP) =  -535.753261364     A.U. after    8 cycles
            NFock=  8  Conv=0.40D-08     -V/T= 2.0028
 Calling FoFJK, ICntrl=      2127 FMM=F ISym2X=1 I1Cent= 0 IOpClX= 0 NMat=1 NMatS=1 NMatT=0.
 ***** Axes restored to original set *****
 -------------------------------------------------------------------
 Center     Atomic                   Forces (Hartrees/Bohr)
 Number     Number              X              Y              Z
 -------------------------------------------------------------------
      1        8           0.026793034   -0.005671927    0.036635617
      2       17          -0.020539203    0.003745947   -0.026766804
      3        1          -0.006253832    0.001925979   -0.009868812
 -------------------------------------------------------------------
 Cartesian Forces:  Max     0.036635617 RMS     0.019392931

 GradGradGradGradGradGradGradGradGradGradGradGradGradGradGradGradGradGrad
 Berny optimization.
 FormGI is forming the generalized inverse of G from B-inverse, IUseBI=4.
 Internal  Forces:  Max     0.033372436 RMS     0.023012233
 Search for a saddle point.
 Step number   9 out of a maximum of  100
 All quantities printed in internal units (Hartrees-Bohrs-Radians)
 Swapping is turned off.
 Update second derivatives using D2CorX and points    6    7    8    9
 The second derivative matrix:
                          R1        R2        A1
           R1           0.13810
           R2           0.01166   0.53796
           A1           0.04079  -0.02775   0.20096
 ITU=  0  0  0  0
     Eigenvalues ---    0.11680   0.21982   0.54040
 Eigenvectors required to have negative eigenvalues:
                          R1        A1        R2
   1                    0.89141  -0.44994  -0.05433
 RFO step:  Lambda0=1.289126678D-01 Lambda=-9.88506186D-05.
 Linear search not attempted -- option 19 set.
 Iteration  1 RMS(Cart)=  0.01586333 RMS(Int)=  0.00001922
 Iteration  2 RMS(Cart)=  0.00001566 RMS(Int)=  0.00000000
 Iteration  3 RMS(Cart)=  0.00000000 RMS(Int)=  0.00000000
 ClnCor:  largest displacement from symmetrization is 4.88D-15 for atom     3.
 Variable       Old X    -DE/DX   Delta X   Delta X   Delta X     New X
                                 (Linear)    (Quad)   (Total)
    R1        3.50306  -0.03337   0.00000   0.02647   0.02647   3.52953
    R2        1.84265  -0.00066   0.00000  -0.00559  -0.00559   1.83706
    A1        1.59564   0.02178   0.00000   0.00853   0.00853   1.60417
         Item               Value     Threshold  Converged?
 Maximum Force            0.033372     0.000450     NO 
 RMS     Force            0.023012     0.000300     NO 
 Maximum Displacement     0.019974     0.001800     NO 
 RMS     Displacement     0.015870     0.001200     NO 
 Predicted change in Energy= 7.665249D-04
 GradGradGradGradGradGradGradGradGradGradGradGradGradGradGradGradGradGrad

                          Input orientation:                          
 ---------------------------------------------------------------------
 Center     Atomic      Atomic             Coordinates (Angstroms)
 Number     Number       Type             X           Y           Z
 ---------------------------------------------------------------------
      1          8           0        1.911773    2.788604    1.347225
      2         17           0        2.772308    2.406969    2.960394
      3          1           0        2.688540    3.264558    1.007906
 ---------------------------------------------------------------------
                    Distance matrix (angstroms):
                    1          2          3
     1  O    0.000000
     2  Cl   1.867747   0.000000
     3  H    0.972130   2.134171   0.000000
 Stoichiometry    ClHO
 Framework group  CS[SG(ClHO)]
 Deg. of freedom     3
 Full point group                 CS      NOp   2
 Largest Abelian subgroup         CS      NOp   2
 Largest concise Abelian subgroup C1      NOp   1
                         Standard orientation:                         
 ---------------------------------------------------------------------
 Center     Atomic      Atomic             Coordinates (Angstroms)
 Number     Number       Type             X           Y           Z
 ---------------------------------------------------------------------
      1          8           0        0.037369    1.219972    0.000000
      2         17           0        0.037369   -0.647775   -0.000000
      3          1           0       -0.934220    1.252409    0.000000
 ---------------------------------------------------------------------
 Rotational constants (GHZ):         566.4358214          12.6241020          12.3488836
 Standard basis: SVP (5D, 7F)
 There are    29 symmetry adapted cartesian basis functions of A'  symmetry.
 There are    10 symmetry adapted cartesian basis functions of A"  symmetry.
 There are    27 symmetry adapted basis functions of A'  symmetry.
 There are    10 symmetry adapted basis functions of A"  symmetry.
    37 basis functions,    69 primitive gaussians,    39 cartesian basis functions
    13 alpha electrons       13 beta electrons
       nuclear repulsion energy        47.1020554380 Hartrees.
 NAtoms=    3 NActive=    3 NUniq=    3 SFac= 1.00D+00 NAtFMM=   60 NAOKFM=F Big=F
 Integral buffers will be    131072 words long.
 Raffenetti 2 integral format.
 Two-electron integral symmetry is turned on.
 Nuclear repulsion after empirical dispersion term =       47.1004427913 Hartrees.
 One-electron integrals computed using PRISM.
 NBasis=    37 RedAO= T EigKep=  4.17D-02  NBF=    27    10
 NBsUse=    37 1.00D-06 EigRej= -1.00D+00 NBFU=    27    10
 Initial guess from the checkpoint file:  "/tmp/Gau-892.chk"
 B after Tr=    -0.000000   -0.000000    0.000000
         Rot=    1.000000   -0.000000    0.000000    0.000482 Ang=   0.06 deg.
 Initial guess orbital symmetries:
       Occupied  (A') (A') (A') (A') (A') (A") (A') (A') (A') (A')
                 (A") (A') (A")
       Virtual   (A') (A') (A') (A') (A') (A") (A') (A') (A") (A')
                 (A") (A') (A") (A') (A') (A') (A") (A') (A') (A")
                 (A') (A') (A") (A')
 Keep R1 ints in memory in symmetry-blocked form, NReq=7153137.
 Requested convergence on RMS density matrix=1.00D-08 within 128 cycles.
 Requested convergence on MAX density matrix=1.00D-06.
 Requested convergence on             energy=1.00D-06.
 No special actions if energy rises.
 SCF Done:  E(RB3LYP) =  -535.752497194     A.U. after    9 cycles
            NFock=  9  Conv=0.31D-08     -V/T= 2.0029
 Calling FoFJK, ICntrl=      2127 FMM=F ISym2X=1 I1Cent= 0 IOpClX= 0 NMat=1 NMatS=1 NMatT=0.
 ***** Axes restored to original set *****
 -------------------------------------------------------------------
 Center     Atomic                   Forces (Hartrees/Bohr)
 Number     Number              X              Y              Z
 -------------------------------------------------------------------
      1        8           0.024525043   -0.008099696    0.039898119
      2       17          -0.021433841    0.004990993   -0.030300302
      3        1          -0.003091201    0.003108703   -0.009597817
 -------------------------------------------------------------------
 Cartesian Forces:  Max     0.039898119 RMS     0.020474125

 GradGradGradGradGradGradGradGradGradGradGradGradGradGradGradGradGradGrad
 Berny optimization.
 FormGI is forming the generalized inverse of G from B-inverse, IUseBI=4.
 Internal  Forces:  Max     0.037065693 RMS     0.024054558
 Search for a saddle point.
 Step number  10 out of a maximum of  100
 All quantities printed in internal units (Hartrees-Bohrs-Radians)
 Swapping is turned off.
 Update second derivatives using D2CorX and points    7    8    9   10
 The second derivative matrix:
                          R1        R2        A1
           R1           0.12810
           R2           0.00647   0.53727
           A1           0.03977  -0.02722   0.19984
 ITU=  0  0  0  0
     Eigenvalues ---    0.10973   0.21599   0.53948
 Eigenvectors required to have negative eigenvalues:
                          R1        A1        R2
   1                    0.90960  -0.41355  -0.04010
 RFO step:  Lambda0=1.237310039D-01 Lambda=-1.71615324D-05.
 Linear search not attempted -- option 19 set.
 Iteration  1 RMS(Cart)=  0.00751726 RMS(Int)=  0.00000589
 Iteration  2 RMS(Cart)=  0.00000533 RMS(Int)=  0.00000000
 Iteration  3 RMS(Cart)=  0.00000000 RMS(Int)=  0.00000000
 ClnCor:  largest displacement from symmetrization is 2.66D-15 for atom     3.
 Variable       Old X    -DE/DX   Delta X   Delta X   Delta X     New X
                                 (Linear)    (Quad)   (Total)
    R1        3.52953  -0.03707   0.00000   0.01165   0.01165   3.54118
    R2        1.83706   0.00240   0.00000   0.00137   0.00137   1.83842
    A1        1.60417   0.01887   0.00000   0.00419   0.00419   1.60836
         Item               Value     Threshold  Converged?
 Maximum Force            0.037066     0.000450     NO 
 RMS     Force            0.024055     0.000300     NO 
 Maximum Displacement     0.009385     0.001800     NO 
 RMS     Displacement     0.007520     0.001200     NO 
 Predicted change in Energy= 3.621570D-04
 GradGradGradGradGradGradGradGradGradGradGradGradGradGradGradGradGradGrad

                          Input orientation:                          
 ---------------------------------------------------------------------
 Center     Atomic      Atomic             Coordinates (Angstroms)
 Number     Number       Type             X           Y           Z
 ---------------------------------------------------------------------
      1          8           0        1.911797    2.789167    1.346016
      2         17           0        2.772998    2.404985    2.965361
      3          1           0        2.687825    3.265979    1.004149
 ---------------------------------------------------------------------
                    Distance matrix (angstroms):
                    1          2          3
     1  O    0.000000
     2  Cl   1.873910   0.000000
     3  H    0.972853   2.143575   0.000000
 Stoichiometry    ClHO
 Framework group  CS[SG(ClHO)]
 Deg. of freedom     3
 Full point group                 CS      NOp   2
 Largest Abelian subgroup         CS      NOp   2
 Largest concise Abelian subgroup C1      NOp   1
                         Standard orientation:                         
 ---------------------------------------------------------------------
 Center     Atomic      Atomic             Coordinates (Angstroms)
 Number     Number       Type             X           Y           Z
 ---------------------------------------------------------------------
      1          8           0        0.037391    1.223844   -0.000000
      2         17           0        0.037391   -0.650067    0.000000
      3          1           0       -0.934775    1.260381   -0.000000
[...]
 ITU=  0  0  0  0
     Eigenvalues ---    0.07682   0.19954   0.50578
 Eigenvectors required to have negative eigenvalues:
                          R1        A1        R2
   1                    0.87263  -0.48837   0.00327
 RFO step:  Lambda0=9.977840617D-02 Lambda= 0.00000000D+00.
 Linear search not attempted -- option 19 set.
 Iteration  1 RMS(Cart)=  0.00000001 RMS(Int)=  0.00000000
 ClnCor:  largest displacement from symmetrization is 3.15D-15 for atom     3.
 Variable       Old X    -DE/DX   Delta X   Delta X   Delta X     New X
                                 (Linear)    (Quad)   (Total)
    R1        3.59607  -0.04176   0.00000   0.00000   0.00000   3.59607
    R2        1.84324  -0.00016   0.00000   0.00000   0.00000   1.84324
    A1        1.55836   0.02337   0.00000  -0.00000  -0.00000   1.55836
         Item               Value     Threshold  Converged?
 Maximum Force            0.041762     0.000450     NO 
 RMS     Force            0.027631     0.000300     NO 
 Maximum Displacement     0.000000     0.001800     YES
 RMS     Displacement     0.000000     0.001200     YES
 Predicted change in Energy= 7.851795D-10
 GradGradGradGradGradGradGradGradGradGradGradGradGradGradGradGradGradGrad

                          Input orientation:                          
 ---------------------------------------------------------------------
 Center     Atomic      Atomic             Coordinates (Angstroms)
 Number     Number       Type             X           Y           Z
 ---------------------------------------------------------------------
      1          8           0        1.896092    2.790983    1.327842
      2         17           0        2.782986    2.408180    2.967397
      3          1           0        2.693543    3.260967    1.020287
 ---------------------------------------------------------------------
                    Distance matrix (angstroms):
                    1          2          3
     1  O    0.000000
     2  Cl   1.902961   0.000000
     3  H    0.975399   2.127553   0.000000
 Stoichiometry    ClHO
 Framework group  CS[SG(ClHO)]
 Deg. of freedom     3
 Full point group                 CS      NOp   2
 Largest Abelian subgroup         CS      NOp   2
 Largest concise Abelian subgroup C1      NOp   1
                         Standard orientation:                         
 ---------------------------------------------------------------------
 Center     Atomic      Atomic             Coordinates (Angstroms)
 Number     Number       Type             X           Y           Z
 ---------------------------------------------------------------------
      1          8           0        0.037512    1.244710    0.000000
      2         17           0        0.037512   -0.658251   -0.000000
      3          1           0       -0.937811    1.232576    0.000000
 ---------------------------------------------------------------------
 Rotational constants (GHZ):         560.4635205          12.1968461          11.9370708
 Standard basis: SVP (5D, 7F)
 There are    29 symmetry adapted cartesian basis functions of A'  symmetry.
 There are    10 symmetry adapted cartesian basis functions of A"  symmetry.
 There are    27 symmetry adapted basis functions of A'  symmetry.
 There are    10 symmetry adapted basis functions of A"  symmetry.
    37 basis functions,    69 primitive gaussians,    39 cartesian basis functions
    13 alpha electrons       13 beta electrons
       nuclear repulsion energy        46.3875423385 Hartrees.
 NAtoms=    3 NActive=    3 NUniq=    3 SFac= 1.00D+00 NAtFMM=   60 NAOKFM=F Big=F
 Integral buffers will be    131072 words long.
 Raffenetti 2 integral format.
 Two-electron integral symmetry is turned on.
 Nuclear repulsion after empirical dispersion term =       46.3859297072 Hartrees.
 One-electron integrals computed using PRISM.
 NBasis=    37 RedAO= T EigKep=  4.32D-02  NBF=    27    10
 NBsUse=    37 1.00D-06 EigRej= -1.00D+00 NBFU=    27    10
 Initial guess from the checkpoint file:  "/tmp/Gau-892.chk"
 B after Tr=    -0.000000    0.000000   -0.000000
         Rot=    1.000000    0.000000   -0.000000   -0.000000 Ang=   0.00 deg.
 Initial guess orbital symmetries:
       Occupied  (A') (A') (A') (A') (A') (A") (A') (A') (A') (A')
                 (A") (A') (A")
       Virtual   (A') (A') (A') (A') (A') (A') (A") (A') (A") (A')
                 (A") (A') (A') (A") (A') (A') (A") (A') (A') (A")
                 (A') (A') (A") (A')
 Keep R1 ints in memory in symmetry-blocked form, NReq=7153137.
 Requested convergence on RMS density matrix=1.00D-08 within 128 cycles.
 Requested convergence on MAX density matrix=1.00D-06.
 Requested convergence on             energy=1.00D-06.
 No special actions if energy rises.
 SCF Done:  E(RB3LYP) =  -535.748906190     A.U. after    1 cycles
            NFock=  1  Conv=0.29D-08     -V/T= 2.0029
 Calling FoFJK, ICntrl=      2127 FMM=F ISym2X=1 I1Cent= 0 IOpClX= 0 NMat=1 NMatS=1 NMatT=0.
 ***** Axes restored to original set *****
 -------------------------------------------------------------------
 Center     Atomic                   Forces (Hartrees/Bohr)
 Number     Number              X              Y              Z
 -------------------------------------------------------------------
      1        8           0.030648909   -0.007804551    0.044788701
      2       17          -0.024739485    0.005253110   -0.033862495
      3        1          -0.005909424    0.002551441   -0.010926206
 -------------------------------------------------------------------
 Cartesian Forces:  Max     0.044788701 RMS     0.023460163

 GradGradGradGradGradGradGradGradGradGradGradGradGradGradGradGradGradGrad
 Berny optimization.
 Internal  Forces:  Max     0.041762259 RMS     0.027630694
 Search for a saddle point.
 Step number  99 out of a maximum of  100
 All quantities printed in internal units (Hartrees-Bohrs-Radians)
 Swapping is turned off.
 Update second derivatives using D2CorX and points   99
 The second derivative matrix:
                          R1        R2        A1
           R1           0.10609
           R2          -0.00016   0.50576
           A1           0.05230   0.00258   0.17029
 ITU=  0  0  0  0
     Eigenvalues ---    0.07682   0.19954   0.50578
 Eigenvectors required to have negative eigenvalues:
                          R1        A1        R2
   1                    0.87263  -0.48837   0.00327
 RFO step:  Lambda0=9.977840354D-02 Lambda= 0.00000000D+00.
 Linear search not attempted -- option 19 set.
 Iteration  1 RMS(Cart)=  0.00000003 RMS(Int)=  0.00000000
 ClnCor:  largest displacement from symmetrization is 1.83D-15 for atom     3.
 Variable       Old X    -DE/DX   Delta X   Delta X   Delta X     New X
                                 (Linear)    (Quad)   (Total)
    R1        3.59607  -0.04176   0.00000   0.00000   0.00000   3.59607
    R2        1.84324  -0.00016   0.00000  -0.00000  -0.00000   1.84324
    A1        1.55836   0.02337   0.00000   0.00000   0.00000   1.55836
         Item               Value     Threshold  Converged?
 Maximum Force            0.041762     0.000450     NO 
 RMS     Force            0.027631     0.000300     NO 
 Maximum Displacement     0.000000     0.001800     YES
 RMS     Displacement     0.000000     0.001200     YES
 Predicted change in Energy= 2.045286D-09
 GradGradGradGradGradGradGradGradGradGradGradGradGradGradGradGradGradGrad

                          Input orientation:                          
 ---------------------------------------------------------------------
 Center     Atomic      Atomic             Coordinates (Angstroms)
 Number     Number       Type             X           Y           Z
 ---------------------------------------------------------------------
      1          8           0        1.896092    2.790983    1.327842
      2         17           0        2.782986    2.408180    2.967397
      3          1           0        2.693543    3.260967    1.020287
 ---------------------------------------------------------------------
                    Distance matrix (angstroms):
                    1          2          3
     1  O    0.000000
     2  Cl   1.902961   0.000000
     3  H    0.975399   2.127553   0.000000
 Stoichiometry    ClHO
 Framework group  CS[SG(ClHO)]
 Deg. of freedom     3
 Full point group                 CS      NOp   2
 Largest Abelian subgroup         CS      NOp   2
 Largest concise Abelian subgroup C1      NOp   1
                         Standard orientation:                         
 ---------------------------------------------------------------------
 Center     Atomic      Atomic             Coordinates (Angstroms)
 Number     Number       Type             X           Y           Z
 ---------------------------------------------------------------------
      1          8           0        0.037512    1.244710   -0.000000
      2         17           0        0.037512   -0.658251   -0.000000
      3          1           0       -0.937811    1.232576    0.000000
 ---------------------------------------------------------------------
 Rotational constants (GHZ):         560.4635416          12.1968458          11.9370704
 Standard basis: SVP (5D, 7F)
 There are    29 symmetry adapted cartesian basis functions of A'  symmetry.
 There are    10 symmetry adapted cartesian basis functions of A"  symmetry.
 There are    27 symmetry adapted basis functions of A'  symmetry.
 There are    10 symmetry adapted basis functions of A"  symmetry.
    37 basis functions,    69 primitive gaussians,    39 cartesian basis functions
    13 alpha electrons       13 beta electrons
       nuclear repulsion energy        46.3875418693 Hartrees.
 NAtoms=    3 NActive=    3 NUniq=    3 SFac= 1.00D+00 NAtFMM=   60 NAOKFM=F Big=F
 Integral buffers will be    131072 words long.
 Raffenetti 2 integral format.
 Two-electron integral symmetry is turned on.
 Nuclear repulsion after empirical dispersion term =       46.3859292379 Hartrees.
 One-electron integrals computed using PRISM.
 NBasis=    37 RedAO= T EigKep=  4.32D-02  NBF=    27    10
 NBsUse=    37 1.00D-06 EigRej= -1.00D+00 NBFU=    27    10
 Initial guess from the checkpoint file:  "/tmp/Gau-892.chk"
 B after Tr=    -0.000000   -0.000000    0.000000
         Rot=    1.000000   -0.000000    0.000000    0.000000 Ang=   0.00 deg.
 Initial guess orbital symmetries:
       Occupied  (A') (A') (A') (A') (A') (A") (A') (A') (A') (A')
                 (A") (A') (A")
       Virtual   (A') (A') (A') (A') (A') (A') (A") (A') (A") (A')
                 (A") (A') (A') (A") (A') (A') (A") (A') (A') (A")
                 (A') (A') (A") (A')
 Keep R1 ints in memory in symmetry-blocked form, NReq=7153137.
 Requested convergence on RMS density matrix=1.00D-08 within 128 cycles.
 Requested convergence on MAX density matrix=1.00D-06.
 Requested convergence on             energy=1.00D-06.
 No special actions if energy rises.
 SCF Done:  E(RB3LYP) =  -535.748906188     A.U. after    1 cycles
            NFock=  1  Conv=0.70D-08     -V/T= 2.0029
 Calling FoFJK, ICntrl=      2127 FMM=F ISym2X=1 I1Cent= 0 IOpClX= 0 NMat=1 NMatS=1 NMatT=0.
 ***** Axes restored to original set *****
 -------------------------------------------------------------------
 Center     Atomic                   Forces (Hartrees/Bohr)
 Number     Number              X              Y              Z
 -------------------------------------------------------------------
      1        8           0.030648866   -0.007804584    0.044788735
      2       17          -0.024739497    0.005253113   -0.033862514
      3        1          -0.005909369    0.002551471   -0.010926221
 -------------------------------------------------------------------
 Cartesian Forces:  Max     0.044788735 RMS     0.023460170

 GradGradGradGradGradGradGradGradGradGradGradGradGradGradGradGradGradGrad
 Berny optimization.
 Internal  Forces:  Max     0.041762281 RMS     0.027630703
 Search for a saddle point.
 Step number 100 out of a maximum of  100
 All quantities printed in internal units (Hartrees-Bohrs-Radians)
 Swapping is turned off.
 Update second derivatives using D2CorX and points  100
 The second derivative matrix:
                          R1        R2        A1
           R1           0.10609
           R2          -0.00016   0.50576
           A1           0.05230   0.00258   0.17029
 ITU=  0  0  0  0
     Eigenvalues ---    0.07682   0.19954   0.50578
 Eigenvectors required to have negative eigenvalues:
                          R1        A1        R2
   1                    0.87263  -0.48837   0.00327
 RFO step:  Lambda0=9.977841572D-02 Lambda= 0.00000000D+00.
 Linear search not attempted -- option 19 set.
 Iteration  1 RMS(Cart)=  0.00000007 RMS(Int)=  0.00000000
 ClnCor:  largest displacement from symmetrization is 2.51D-15 for atom     3.
 Variable       Old X    -DE/DX   Delta X   Delta X   Delta X     New X
                                 (Linear)    (Quad)   (Total)
    R1        3.59607  -0.04176   0.00000   0.00000   0.00000   3.59607
    R2        1.84324  -0.00016   0.00000   0.00000   0.00000   1.84324
    A1        1.55836   0.02337   0.00000  -0.00000  -0.00000   1.55836
         Item               Value     Threshold  Converged?
 Maximum Force            0.041762     0.000450     NO 
 RMS     Force            0.027631     0.000300     NO 
 Maximum Displacement     0.000000     0.001800     YES
 RMS     Displacement     0.000000     0.001200     YES
 Predicted change in Energy= 5.163324D-09
 Optimization stopped.
    -- Number of steps exceeded,  NStep= 100
    -- Flag reset to prevent archiving.
                           ----------------------------
                           ! Non-Optimized Parameters !
                           ! (Angstroms and Degrees)  !
 --------------------------                            --------------------------
 ! Name  Definition              Value          Derivative Info.                !
 --------------------------------------------------------------------------------
 ! R1    R(1,2)                  1.903          -DE/DX =   -0.0418              !
 ! R2    R(1,3)                  0.9754         -DE/DX =   -0.0002              !
 ! A1    A(2,1,3)               89.2872         -DE/DX =    0.0234              !
 --------------------------------------------------------------------------------
 GradGradGradGradGradGradGradGradGradGradGradGradGradGradGradGradGradGrad

                          Input orientation:                          
 ---------------------------------------------------------------------
 Center     Atomic      Atomic             Coordinates (Angstroms)
 Number     Number       Type             X           Y           Z
 ---------------------------------------------------------------------
      1          8           0        1.896092    2.790983    1.327842
      2         17           0        2.782986    2.408180    2.967397
      3          1           0        2.693543    3.260967    1.020287
 ---------------------------------------------------------------------
                    Distance matrix (angstroms):
                    1          2          3
     1  O    0.000000
     2  Cl   1.902961   0.000000
     3  H    0.975399   2.127553   0.000000
 Stoichiometry    ClHO
 Framework group  CS[SG(ClHO)]
 Deg. of freedom     3
 Full point group                 CS      NOp   2
 Largest Abelian subgroup         CS      NOp   2
 Largest concise Abelian subgroup C1      NOp   1
                         Standard orientation:                         
 ---------------------------------------------------------------------
 Center     Atomic      Atomic             Coordinates (Angstroms)
 Number     Number       Type             X           Y           Z
 ---------------------------------------------------------------------
      1          8           0        0.037512    1.244710   -0.000000
      2         17           0        0.037512   -0.658251    0.000000
      3          1           0       -0.937811    1.232576   -0.000000
 ---------------------------------------------------------------------
 Rotational constants (GHZ):         560.4635416          12.1968458          11.9370704

 **********************************************************************

            Population analysis using the SCF density.

 **********************************************************************

 Orbital symmetries:
       Occupied  (A') (A') (A') (A') (A') (A") (A') (A') (A') (A')
                 (A") (A') (A")
       Virtual   (A') (A') (A') (A') (A') (A') (A") (A') (A") (A')
                 (A") (A') (A') (A") (A') (A') (A") (A') (A') (A")
                 (A') (A') (A") (A')
 The electronic state is 1-A'.
 Alpha  occ. eigenvalues -- -101.54609 -19.21272  -9.49613  -7.26942  -7.25353
 Alpha  occ. eigenvalues --   -7.25321  -1.01739  -0.79897  -0.49527  -0.42995
 Alpha  occ. eigenvalues --   -0.38022  -0.32599  -0.29774
 Alpha virt. eigenvalues --   -0.13088   0.05540   0.46740   0.56120   0.68048
 Alpha virt. eigenvalues --    0.69380   0.69580   0.75880   0.76089   0.83344
 Alpha virt. eigenvalues --    0.83732   0.91794   0.98998   0.99228   1.06137
 Alpha virt. eigenvalues --    1.39550   1.39782   1.48895   2.15162   2.59400
 Alpha virt. eigenvalues --    2.75102   2.91117   2.92441   3.63959
          Condensed to atoms (all electrons):
               1          2          3
     1  O    7.817664   0.142522   0.292246
     2  Cl   0.142522  16.831794  -0.015205
     3  H    0.292246  -0.015205   0.511416
 Mulliken charges:
               1
     1  O   -0.252432
     2  Cl   0.040889
     3  H    0.211543
 Sum of Mulliken charges =  -0.00000
 Mulliken charges with hydrogens summed into heavy atoms:
               1
     1  O   -0.040889
     2  Cl   0.040889
 Electronic spatial extent (au):  <R**2>=            117.8954
 Charge=             -0.0000 electrons
 Dipole moment (field-independent basis, Debye):
    X=             -1.6504    Y=             -0.1493    Z=             -0.0000  Tot=              1.6572
 Quadrupole moment (field-independent basis, Debye-Ang):
   XX=            -16.5552   YY=            -16.6962   ZZ=            -18.7180
   XY=             -2.2876   XZ=              0.0000   YZ=             -0.0000
 Traceless Quadrupole moment (field-independent basis, Debye-Ang):
   XX=              0.7679   YY=              0.6270   ZZ=             -1.3948
   XY=             -2.2876   XZ=              0.0000   YZ=             -0.0000
 Octapole moment (field-independent basis, Debye-Ang**2):
  XXX=             -2.2198  YYY=             -0.2436  ZZZ=              0.0000  XYY=             -3.1315
  XXY=              3.1893  XXZ=              0.0000  XZZ=             -0.2388  YZZ=              0.5342
  YYZ=             -0.0000  XYZ=             -0.0000
 Hexadecapole moment (field-independent basis, Debye-Ang**3):
 XXXX=            -16.9399 YYYY=            -91.6223 ZZZZ=            -16.7570 XXXY=             -0.3272
 XXXZ=              0.0000 YYYX=             -2.1763 YYYZ=             -0.0000 ZZZX=              0.0000
 ZZZY=             -0.0000 XXYY=            -17.3487 XXZZ=             -5.9325 YYZZ=            -20.2861
 XXYZ=             -0.0000 YYXZ=              0.0000 ZZXY=              0.5120
 N-N= 4.638592923791D+01 E-N=-1.365585061570D+03  KE= 5.341886640015D+02
 Symmetry A'   KE= 4.834391270794D+02
 Symmetry A"   KE= 5.074953692210D+01


 MY DESCRIPTION OF EXPERIENCE IS NOT WHAT HAPPENS
 TO A MAN.  EXPERIENCE IS WHAT A MAN DOES WITH WHAT
 HAPPENS TO HIM.
                         - CHUCK KNOX, SEATTLE SEAHAWKS, 1985
 Error termination request processed by link 9999.
 Error termination via Lnk1e in /share/apps/g16.a03/g16/l9999.exe at Thu Mar  6 16:40:30 2025.
 Job cpu time:       0 days  0 hours 13 minutes 36.3 seconds.
 Elapsed time:       0 days  0 hours  1 minutes 45.8 seconds.
 File lengths (MBytes):  RWF=      6 Int=      0 D2E=      0 Chk=      1 Scr=      1
