70
 energy: -143.121391778117 gnorm: 0.109340955506 xtb: 6.6.1 (8d0f1dd)
O    -0.57769276    -2.82319630    -0.74798039
H    -0.19680627    -2.25938827    -1.42354238
H    -1.22466611    -3.47461654    -1.02441455
O     0.25649457     1.69272189    -3.94951179
H     0.82129769     1.36006871    -4.64928182
H     0.71769100     2.20947664    -3.28648806
O    -1.89408248     3.04213368     3.36188612
H    -2.02604387     3.89815001     2.95059444
H    -2.71722188     2.88913826     3.82918933
O     0.33749229     1.50920177     3.46376004
H     0.36507806     1.74300548     2.53429039
H    -0.45258377     1.93222355     3.80459851
O    -0.39340403    -0.44407458    -2.50644976
H    -0.76529672    -0.00289118    -1.74068725
H    -0.24289640     0.33887491    -3.03906185
O     2.51946633    -2.56562201    -2.19463840
H     1.99700317    -3.07874989    -2.81356489
H     2.69172748    -3.07083090    -1.39812755
O    -2.87378502    -1.83869785    -3.18857117
H    -3.10158659    -1.95591808    -4.11253183
H    -2.10708466    -1.28501561    -3.03063092
O    -4.86949818    -0.38781621    -1.78748551
H    -5.34757226     0.30714325    -2.24335249
H    -4.09118435    -0.65827045    -2.27781050
O     0.80314578     3.15582149    -1.69533985
H     1.05352858     3.92448392    -1.17977694
H     0.56828829     2.48995371    -1.04664897
O     2.43964761    -0.05199560    -3.61298963
H     2.10354365    -0.73886001    -3.03455231
H     3.38614605    -0.02423030    -3.46229763
O    -2.68567477     2.44264385    -4.05182098
Cl    -3.00400517     2.39698439    -2.37917542
H    -1.72344423     2.38470026    -4.08844531
O     1.90638040     4.27757429     0.78302006
Cl     3.10126041     3.25909727     0.12261792
H     2.07954387     4.41260020     1.72236532
O    -1.06456427    -1.16296126     3.92850412
Cl    -1.09983774    -1.33818816     5.62237989
H    -0.68607316    -0.28229516     3.82007060
O     1.54206098     4.07505126     4.61039806
Cl     2.97691656     4.48564456     3.78956712
H     0.94207452     3.62994590     4.00008213
C     4.86564195    -0.91970907    -0.41214852
C     4.41398146    -1.95910044     0.39183585
C     3.09038786    -1.99561402     0.78738059
C     2.20588150    -0.99958588     0.36021874
C     2.71316231     0.09257767    -0.34315908
C     4.01942827     0.10796622    -0.81837892
H     5.10059633    -2.63209373     0.88829828
H     2.77182006    -2.81312835     1.42470338
C    -2.53980977     0.01800979     1.19485096
C    -2.76033910     1.31176897     0.71586105
C    -3.61497158    -0.67020481     1.76427592
C    -3.91996550     1.99010692     1.06912257
H    -1.94990351     1.90119381     0.31819475
C    -4.84819639    -0.06609998     1.94669350
C    -4.92621714     1.30146208     1.72813182
H    -4.10915562     3.02196651     0.80302479
H    -5.69154727    -0.61344297     2.34665092
Cl     6.49740420    -0.82331439    -0.98944266
Cl    -6.40485570     2.13883565     2.12189996
N     0.85782401    -1.05985560     0.74576180
H     0.50075199    -1.95005165     1.05528607
C    -0.10909464    -0.06703205     0.75931902
O     0.07349771     1.03532426     0.30029305
N    -1.30041674    -0.64798060     1.14855384
H    -1.23650178    -1.58480106     1.51479188
H    -3.54583399    -1.71517622     2.04831598
H     1.96685444     0.84664640    -0.53386788
Cl     4.64081562     1.45947012    -1.70869582
