70
 energy: -143.138965412077 gnorm: 0.109410242043 xtb: 6.6.1 (8d0f1dd)
O    -1.69593343    -0.60850608     3.94728111
H    -1.83159294    -1.51060670     4.24249117
H    -1.72984244    -0.55835523     2.99037267
O    -1.81939408     0.89893736    -2.31237177
H    -1.26492399     1.09239185    -1.55442910
H    -2.54256196     0.32632847    -2.05067473
O     0.80611712    -0.25980186     2.83783817
H     1.27840452    -1.06428200     2.61626442
H    -0.12773624    -0.47470529     2.80508496
O    -1.91291009    -0.65253651     1.04411253
H    -2.51870520    -0.06990419     0.58271157
H    -1.39636411    -0.96565238     0.29948030
O     0.40937332    -0.68203450    -3.42509597
H    -0.30655908    -0.74945395    -4.05931566
H     0.56067539     0.22955357    -3.16925817
O     0.00739818    -0.88620673    -0.80412048
H     0.37110266    -0.01571391    -0.63295016
H     0.33398999    -1.12016955    -1.67471720
O    -2.81948715    -2.30176979    -3.88130860
H    -2.68721662    -1.78232187    -4.67630281
H    -2.02076313    -2.31268069    -3.35096958
O    -5.14353181    -0.62807600    -3.55447020
H    -4.38481217    -1.18566998    -3.73549961
H    -5.11730407     0.00393332    -4.27503445
O     0.96010540     1.89897204    -2.69364421
H     1.24758723     2.39267265    -3.46367831
H     0.74466515     2.54928159    -2.02280832
O    -4.18561581     0.09942450    -1.00635103
H    -4.74420972    -0.39179609    -1.61134153
H    -4.46045090     1.01771693    -1.02965308
O    -1.72739025    -0.10599664    -4.96501552
Cl    -2.88456289     0.83160191    -5.79146737
H    -1.66544237     0.28910611    -4.08715296
O     2.03501194     3.92671354     3.56257806
Cl     1.98407799     4.84649440     2.12989751
H     1.17285922     3.73169508     3.94890380
O     1.54336244    -2.33704919     1.28927936
Cl     0.95772716    -3.86785459     1.75277688
H     0.95965960    -2.13532994     0.54820819
O     0.23390502     1.79547496     4.72399689
Cl     0.30621445     1.21205934     6.32260829
H     0.30710850     0.96663805     4.23587940
C     5.31519476    -0.48585329     0.45002859
C     5.20224940    -0.15319830     1.79438958
C     4.11846079     0.59807107     2.20753059
C     3.15846111     1.03259205     1.28748549
C     3.20949380     0.68099539    -0.06109558
C     4.28594285    -0.12449673    -0.41442450
H     5.91050144    -0.60350730     2.47735059
H     4.07829207     0.91715541     3.24317876
C    -1.38881971     2.89154263     1.53437767
C    -1.63783397     3.70185922     0.42385688
C    -2.40365674     2.33094420     2.31520567
C    -2.94662235     4.10263540     0.18695823
H    -0.90575060     4.10727456    -0.25589187
C    -3.70009537     2.72366244     2.02523736
C    -3.94746699     3.67204738     1.04367951
H    -3.14075765     4.82112076    -0.59880603
H    -4.51538191     2.31963174     2.61077822
Cl     6.68288224    -1.47551550     0.05606397
Cl    -5.60936011     4.11387018     0.75123503
N     2.05028334     1.75996177     1.74836540
H     1.98869362     1.81557826     2.75278973
C     0.86335693     1.99790518     1.07353000
O     0.68068110     1.76641236    -0.09791139
N    -0.05258561     2.62998077     1.89193280
H     0.02641527     2.39623111     2.86915744
H    -2.20968194     1.68941914     3.16857746
H     2.32458412     0.68821170    -0.67660165
Cl     4.44036014    -0.65461681    -2.05773738
