 Entering Gaussian System, Link 0=g16
 Input=ts.gjf
 Output=ts.log
 Initial command:
 /share/apps/g16.a03/g16/l1.exe "/tmp/Gau-30378.inp" -scrdir="/tmp/"
 Entering Link 1 = /share/apps/g16.a03/g16/l1.exe PID=     30380.
  
 Copyright (c) 1988,1990,1992,1993,1995,1998,2003,2009,2016,
            Gaussian, Inc.  All Rights Reserved.
  
 This is part of the Gaussian(R) 16 program.  It is based on
 the Gaussian(R) 09 system (copyright 2009, Gaussian, Inc.),
 the Gaussian(R) 03 system (copyright 2003, Gaussian, Inc.),
 the Gaussian(R) 98 system (copyright 1998, Gaussian, Inc.),
 the Gaussian(R) 94 system (copyright 1995, Gaussian, Inc.),
 the Gaussian 92(TM) system (copyright 1992, Gaussian, Inc.),
 the Gaussian 90(TM) system (copyright 1990, Gaussian, Inc.),
 the Gaussian 88(TM) system (copyright 1988, Gaussian, Inc.),
 the Gaussian 86(TM) system (copyright 1986, Carnegie Mellon
 University), and the Gaussian 82(TM) system (copyright 1983,
 Carnegie Mellon University). Gaussian is a federally registered
 trademark of Gaussian, Inc.
  
 This software contains proprietary and confidential information,
 including trade secrets, belonging to Gaussian, Inc.
  
 This software is provided under written license and may be
 used, copied, transmitted, or stored only in accord with that
 written license.
  
 The following legend is applicable only to US Government
 contracts under FAR:
  
                    RESTRICTED RIGHTS LEGEND
  
 Use, reproduction and disclosure by the US Government is
 subject to restrictions as set forth in subparagraphs (a)
 and (c) of the Commercial Computer Software - Restricted
 Rights clause in FAR 52.227-19.
  
 Gaussian, Inc.
 340 Quinnipiac St., Bldg. 40, Wallingford CT 06492
  
  
 ---------------------------------------------------------------
 Warning -- This program may not be used in any manner that
 competes with the business of Gaussian, Inc. or will provide
 assistance to any competitor of Gaussian, Inc.  The licensee
 of this program is prohibited from giving any competitor of
 Gaussian, Inc. access to this program.  By using this program,
 the user acknowledges that Gaussian, Inc. is engaged in the
 business of creating and licensing software in the field of
 computational chemistry and represents and warrants to the
 licensee that it is not a competitor of Gaussian, Inc. and that
 it will not use this program in any manner prohibited above.
 ---------------------------------------------------------------
  

 Cite this work as:
 Gaussian 16, Revision A.03,
 M. J. Frisch, G. W. Trucks, H. B. Schlegel, G. E. Scuseria, 
 M. A. Robb, J. R. Cheeseman, G. Scalmani, V. Barone, 
 G. A. Petersson, H. Nakatsuji, X. Li, M. Caricato, A. V. Marenich, 
 J. Bloino, B. G. Janesko, R. Gomperts, B. Mennucci, H. P. Hratchian, 
 J. V. Ortiz, A. F. Izmaylov, J. L. Sonnenberg, D. Williams-Young, 
 F. Ding, F. Lipparini, F. Egidi, J. Goings, B. Peng, A. Petrone, 
 T. Henderson, D. Ranasinghe, V. G. Zakrzewski, J. Gao, N. Rega, 
 G. Zheng, W. Liang, M. Hada, M. Ehara, K. Toyota, R. Fukuda, 
 J. Hasegawa, M. Ishida, T. Nakajima, Y. Honda, O. Kitao, H. Nakai, 
 T. Vreven, K. Throssell, J. A. Montgomery, Jr., J. E. Peralta, 
 F. Ogliaro, M. J. Bearpark, J. J. Heyd, E. N. Brothers, K. N. Kudin, 
 V. N. Staroverov, T. A. Keith, R. Kobayashi, J. Normand, 
 K. Raghavachari, A. P. Rendell, J. C. Burant, S. S. Iyengar, 
 J. Tomasi, M. Cossi, J. M. Millam, M. Klene, C. Adamo, R. Cammi, 
 J. W. Ochterski, R. L. Martin, K. Morokuma, O. Farkas, 
 J. B. Foresman, and D. J. Fox, Gaussian, Inc., Wallingford CT, 2016.
 
 ******************************************
 Gaussian 16:  EM64L-G16RevA.03 25-Dec-2016
                 6-Mar-2025 
 ******************************************
 %nproc=8
 Will use up to    8 processors via shared memory.
 %mem=4000MB
 --------------------------------------------------------------------
 #opt=(noeigen,calcfc,ts,recalc=5,maxcyc=200) freq B3LYP/SVP em=GD3BJ
 --------------------------------------------------------------------
 1/5=1,6=200,10=4,11=1,18=20,26=3,38=1,71=5/1,3;
 2/9=110,12=2,17=6,18=5,40=1/2;
 3/5=18,7=101,11=2,25=1,30=1,71=2,74=-5,124=41,140=1/1,2,3;
 4//1;
 5/5=2,38=5/2;
 8/6=4,10=90,11=11/1;
 11/6=1,8=1,9=11,15=111,16=1/1,2,10;
 10/6=1,13=1/2;
 6/7=2,8=2,9=2,10=2,28=1/1;
 7/10=1,18=20,25=1/1,2,3,16;
 1/5=1,6=200,10=4,11=1,18=20,26=3,71=5/3(2);
 2/9=110/2;
 99//99;
 2/9=110/2;
 3/5=18,7=101,11=2,25=1,30=1,71=1,74=-5,124=41/1,2,3;
 4/5=5,16=3,69=1/1;
 5/5=2,38=5/2;
 7//1,2,3,16;
 1/5=1,6=200,11=1,18=20,26=3,71=5/3(-5);
 2/9=110/2;
 6/7=2,8=2,9=2,10=2,19=2,28=1/1;
 99/9=1/99;
 -----------
 ts-1789.gjf
 -----------
 Symbolic Z-matrix:
 Charge =  0 Multiplicity = 1
 O                     3.17719  -4.97711   1.41089 
 Cl                    2.76676  -4.89406   2.98093 
 H                     2.57993  -5.55094   0.9184 
 

 GradGradGradGradGradGradGradGradGradGradGradGradGradGradGradGradGradGrad
 Berny optimization.
 Initialization pass.
                           ----------------------------
                           !    Initial Parameters    !
                           ! (Angstroms and Degrees)  !
 --------------------------                            --------------------------
 ! Name  Definition              Value          Derivative Info.                !
 --------------------------------------------------------------------------------
 ! R1    R(1,2)                  1.6249         calculate D2E/DX2 analytically  !
 ! R2    R(1,3)                  0.9636         calculate D2E/DX2 analytically  !
 ! A1    A(2,1,3)              111.5746         calculate D2E/DX2 analytically  !
 --------------------------------------------------------------------------------
 Trust Radius=3.00D-01 FncErr=1.00D-07 GrdErr=1.00D-06 EigMax=2.50D+02 EigMin=1.00D-04
 Number of steps in this run=    100 maximum allowed number of steps=    100.
 Search for a saddle point of order  1.
 GradGradGradGradGradGradGradGradGradGradGradGradGradGradGradGradGradGrad

                          Input orientation:                          
 ---------------------------------------------------------------------
 Center     Atomic      Atomic             Coordinates (Angstroms)
 Number     Number       Type             X           Y           Z
 ---------------------------------------------------------------------
      1          8           0        3.177188   -4.977110    1.410890
      2         17           0        2.766764   -4.894056    2.980927
      3          1           0        2.579927   -5.550939    0.918397
 ---------------------------------------------------------------------
                    Distance matrix (angstroms):
                    1          2          3
     1  O    0.000000
     2  Cl   1.624919   0.000000
     3  H    0.963613   2.172656   0.000000
 Stoichiometry    ClHO
 Framework group  CS[SG(ClHO)]
 Deg. of freedom     3
 Full point group                 CS      NOp   2
 Largest Abelian subgroup         CS      NOp   2
 Largest concise Abelian subgroup C1      NOp   1
                         Standard orientation:                         
 ---------------------------------------------------------------------
 Center     Atomic      Atomic             Coordinates (Angstroms)
 Number     Number       Type             X           Y           Z
 ---------------------------------------------------------------------
      1          8           0        0.034465    1.048819   -0.000000
      2         17           0        0.034465   -0.576100    0.000000
      3          1           0       -0.861637    1.403151   -0.000000
 ---------------------------------------------------------------------
 Rotational constants (GHZ):         684.9379008          16.2151987          15.8401983
 Standard basis: SVP (5D, 7F)
 There are    29 symmetry adapted cartesian basis functions of A'  symmetry.
 There are    10 symmetry adapted cartesian basis functions of A"  symmetry.
 There are    27 symmetry adapted basis functions of A'  symmetry.
 There are    10 symmetry adapted basis functions of A"  symmetry.
    37 basis functions,    69 primitive gaussians,    39 cartesian basis functions
    13 alpha electrons       13 beta electrons
       nuclear repulsion energy        52.8241041446 Hartrees.
 NAtoms=    3 NActive=    3 NUniq=    3 SFac= 1.00D+00 NAtFMM=   60 NAOKFM=F Big=F
 Integral buffers will be    131072 words long.
 Raffenetti 2 integral format.
 Two-electron integral symmetry is turned on.
 Nuclear repulsion after empirical dispersion term =       52.8224888731 Hartrees.
 One-electron integrals computed using PRISM.
 NBasis=    37 RedAO= T EigKep=  3.06D-02  NBF=    27    10
 NBsUse=    37 1.00D-06 EigRej= -1.00D+00 NBFU=    27    10
 ExpMin= 1.22D-01 ExpMax= 1.04D+04 ExpMxC= 1.57D+03 IAcc=3 IRadAn=         5 AccDes= 0.00D+00
 Harris functional with IExCor=  402 and IRadAn=       5 diagonalized for initial guess.
 HarFok:  IExCor=  402 AccDes= 0.00D+00 IRadAn=         5 IDoV= 1 UseB2=F ITyADJ=14
 ICtDFT=  3500011 ScaDFX=  1.000000  1.000000  1.000000  1.000000
 FoFCou: FMM=F IPFlag=           0 FMFlag=      100000 FMFlg1=           0
         NFxFlg=           0 DoJE=T BraDBF=F KetDBF=T FulRan=T
         wScrn=  0.000000 ICntrl=       500 IOpCl=  0 I1Cent=   200000004 NGrid=           0
         NMat0=    1 NMatS0=      1 NMatT0=    0 NMatD0=    1 NMtDS0=    0 NMtDT0=    0
 Petite list used in FoFCou.
 Initial guess orbital symmetries:
       Occupied  (A') (A') (A') (A') (A') (A") (A') (A') (A') (A')
                 (A") (A') (A")
       Virtual   (A') (A') (A') (A') (A') (A") (A') (A') (A") (A')
                 (A") (A') (A") (A') (A') (A') (A") (A') (A') (A")
                 (A') (A") (A') (A')
 The electronic state of the initial guess is 1-A'.
 Keep R1 ints in memory in symmetry-blocked form, NReq=7153137.
 Requested convergence on RMS density matrix=1.00D-08 within 128 cycles.
 Requested convergence on MAX density matrix=1.00D-06.
 Requested convergence on             energy=1.00D-06.
 No special actions if energy rises.
 Integral accuracy reduced to 1.0D-05 until final iterations.
 Initial convergence to 1.0D-05 achieved.  Increase integral accuracy.
 SCF Done:  E(RB3LYP) =  -535.754802956     A.U. after   11 cycles
            NFock= 11  Conv=0.81D-08     -V/T= 2.0023
 DoSCS=F DFT=T ScalE2(SS,OS)=  1.000000  1.000000
 Range of M.O.s used for correlation:     1    37
 NBasis=    37 NAE=    13 NBE=    13 NFC=     0 NFV=     0
 NROrb=     37 NOA=    13 NOB=    13 NVA=    24 NVB=    24
 Symmetrizing basis deriv contribution to polar:
 IMax=3 JMax=2 DiffMx= 0.00D+00
 G2DrvN: will do     4 centers at a time, making    1 passes.
 Calling FoFCou, ICntrl=  3107 FMM=F I1Cent=   0 AccDes= 0.00D+00.
 End of G2Drv F.D. properties file   721 does not exist.
 End of G2Drv F.D. properties file   722 does not exist.
 End of G2Drv F.D. properties file   788 does not exist.
          IDoAtm=111
          Differentiating once with respect to nuclear coordinates.
 Keep R1 ints in memory in symmetry-blocked form, NReq=7127942.
          There are    12 degrees of freedom in the 1st order CPHF.  IDoFFX=6 NUNeed=     0.
      6 vectors produced by pass  0 Test12= 2.60D-15 8.33D-09 XBig12= 8.00D-02 1.92D-01.
 AX will form     6 AO Fock derivatives at one time.
      6 vectors produced by pass  1 Test12= 2.60D-15 8.33D-09 XBig12= 1.32D-02 5.23D-02.
      6 vectors produced by pass  2 Test12= 2.60D-15 8.33D-09 XBig12= 4.64D-04 6.35D-03.
      6 vectors produced by pass  3 Test12= 2.60D-15 8.33D-09 XBig12= 7.15D-06 8.28D-04.
      6 vectors produced by pass  4 Test12= 2.60D-15 8.33D-09 XBig12= 6.05D-08 7.16D-05.
      6 vectors produced by pass  5 Test12= 2.60D-15 8.33D-09 XBig12= 4.65D-10 7.26D-06.
      3 vectors produced by pass  6 Test12= 2.60D-15 8.33D-09 XBig12= 9.12D-13 3.44D-07.
 InvSVY:  IOpt=1 It=  1 EMax= 2.22D-16
 Solved reduced A of dimension    39 with     6 vectors.
 End of Minotr F.D. properties file   721 does not exist.
 End of Minotr F.D. properties file   722 does not exist.
 End of Minotr F.D. properties file   788 does not exist.

 **********************************************************************

            Population analysis using the SCF density.

 **********************************************************************

 Orbital symmetries:
       Occupied  (A') (A') (A') (A') (A') (A") (A') (A') (A') (A')
                 (A") (A') (A")
       Virtual   (A') (A') (A') (A') (A') (A") (A') (A') (A") (A')
                 (A") (A') (A") (A') (A') (A') (A") (A') (A') (A")
                 (A') (A") (A') (A')
 The electronic state is 1-A'.
 Alpha  occ. eigenvalues -- -101.53665 -19.18426  -9.48998  -7.26333  -7.24685
 Alpha  occ. eigenvalues --   -7.24642  -1.06978  -0.78750  -0.54008  -0.43340
 Alpha  occ. eigenvalues --   -0.41187  -0.30103  -0.26605
 Alpha virt. eigenvalues --   -0.03587   0.07246   0.44447   0.54413   0.70264
 Alpha virt. eigenvalues --    0.70395   0.73791   0.76136   0.76207   0.84488
 Alpha virt. eigenvalues --    0.85075   0.95605   0.99643   1.07239   1.15063
 Alpha virt. eigenvalues --    1.27274   1.43413   1.61578   2.18091   2.64177
 Alpha virt. eigenvalues --    2.85442   2.92354   3.03562   3.64193
          Condensed to atoms (all electrons):
               1          2          3
     1  O    7.918809   0.090832   0.317457
     2  Cl   0.090832  16.817848  -0.027152
     3  H    0.317457  -0.027152   0.501068
 Mulliken charges:
               1
     1  O   -0.327098
     2  Cl   0.118472
     3  H    0.208626
 Sum of Mulliken charges =  -0.00000
 Mulliken charges with hydrogens summed into heavy atoms:
               1
     1  O   -0.118472
     2  Cl   0.118472
 APT charges:
               1
     1  O   -0.597458
     2  Cl   0.122643
     3  H    0.474814
 Sum of APT charges =  -0.00000
 APT charges with hydrogens summed into heavy atoms:
               1
     1  O   -0.122643
     2  Cl   0.122643
 Electronic spatial extent (au):  <R**2>=             99.3051
 Charge=             -0.0000 electrons
 Dipole moment (field-independent basis, Debye):
    X=             -1.6486    Y=              0.2618    Z=             -0.0000  Tot=              1.6693
 Quadrupole moment (field-independent basis, Debye-Ang):
   XX=            -16.6414   YY=            -15.9059   ZZ=            -18.4867
   XY=             -2.6985   XZ=              0.0000   YZ=              0.0000
 Traceless Quadrupole moment (field-independent basis, Debye-Ang):
   XX=              0.3699   YY=              1.1054   ZZ=             -1.4754
   XY=             -2.6985   XZ=              0.0000   YZ=              0.0000
 Octapole moment (field-independent basis, Debye-Ang**2):
  XXX=             -1.9626  YYY=              1.8367  ZZZ=              0.0000  XYY=             -3.8285
  XXY=              3.1330  XXZ=              0.0000  XZZ=             -0.2474  YZZ=              0.7540
  YYZ=              0.0000  XYZ=              0.0000
 Hexadecapole moment (field-independent basis, Debye-Ang**3):
 XXXX=            -16.7700 YYYY=            -69.5646 ZZZZ=            -16.4962 XXXY=             -0.3791
 XXXZ=              0.0000 YYYX=             -4.0993 YYYZ=              0.0000 ZZZX=              0.0000
 ZZZY=              0.0000 XXYY=            -13.6224 XXZZ=             -5.7742 YYZZ=            -16.7258
 XXYZ=              0.0000 YYXZ=              0.0000 ZZXY=              0.4801
 N-N= 5.282248887306D+01 E-N=-1.378768265820D+03  KE= 5.345436528421D+02
 Symmetry A'   KE= 4.837742658427D+02
 Symmetry A"   KE= 5.076938699940D+01
  Exact polarizability:   0.000   0.000   0.000   0.000   0.000   0.000
 Approx polarizability:  13.838  -1.873  29.315   0.000  -0.000  10.306
 Calling FoFJK, ICntrl=    100147 FMM=F ISym2X=1 I1Cent= 0 IOpClX= 0 NMat=1 NMatS=1 NMatT=0.
 ***** Axes restored to original set *****
 -------------------------------------------------------------------
 Center     Atomic                   Forces (Hartrees/Bohr)
 Number     Number              X              Y              Z
 -------------------------------------------------------------------
      1        8           0.026038022    0.007727037   -0.047649545
      2       17          -0.016193431   -0.001664065    0.042193103
      3        1          -0.009844591   -0.006062972    0.005456441
 -------------------------------------------------------------------
 Cartesian Forces:  Max     0.047649545 RMS     0.024075962
 FormGI is forming the generalized inverse of G from B-inverse, IUseBI=4.

 GradGradGradGradGradGradGradGradGradGradGradGradGradGradGradGradGradGrad
 Berny optimization.
 Internal  Forces:  Max     0.044773137 RMS     0.028493249
 Search for a saddle point.
 Step number   1 out of a maximum of  100
 All quantities printed in internal units (Hartrees-Bohrs-Radians)
 Swapping is turned off.
 Second derivative matrix not updated -- analytic derivatives used.
 The second derivative matrix:
                          R1        R2        A1
           R1           0.37185
           R2          -0.00985   0.53228
           A1           0.05804  -0.00049   0.18105
 ITU=  0
     Eigenvalues ---    0.16477   0.38748   0.53293
 Eigenvectors required to have negative eigenvalues:
                          A1        R1        R2
   1                   -0.96280   0.27015   0.00594
 RFO step:  Lambda0=1.703973027D-01 Lambda=-3.75995555D-03.
 Linear search not attempted -- option 19 set.
 Iteration  1 RMS(Cart)=  0.10021112 RMS(Int)=  0.00385530
 Iteration  2 RMS(Cart)=  0.00284352 RMS(Int)=  0.00000262
 Iteration  3 RMS(Cart)=  0.00000329 RMS(Int)=  0.00000000
 Iteration  4 RMS(Cart)=  0.00000000 RMS(Int)=  0.00000000
 ClnCor:  largest displacement from symmetrization is 2.44D-15 for atom     3.
 Variable       Old X    -DE/DX   Delta X   Delta X   Delta X     New X
                                 (Linear)    (Quad)   (Total)
    R1        3.07065   0.04477   0.00000   0.06679   0.06679   3.13744
    R2        1.82096   0.00692   0.00000   0.01373   0.01373   1.83469
    A1        1.94734  -0.01957   0.00000   0.12052   0.12052   2.06787
         Item               Value     Threshold  Converged?
 Maximum Force            0.044773     0.000450     NO 
 RMS     Force            0.028493     0.000300     NO 
 Maximum Displacement     0.114407     0.001800     NO 
 RMS     Displacement     0.099722     0.001200     NO 
 Predicted change in Energy= 1.925182D-03
 GradGradGradGradGradGradGradGradGradGradGradGradGradGradGradGradGradGrad

                          Input orientation:                          
 ---------------------------------------------------------------------
 Center     Atomic      Atomic             Coordinates (Angstroms)
 Number     Number       Type             X           Y           Z
 ---------------------------------------------------------------------
      1          8           0        3.150996   -4.994746    1.419387
      2         17           0        2.780226   -4.870880    3.032972
      3          1           0        2.592656   -5.556478    0.857855
 ---------------------------------------------------------------------
                    Distance matrix (angstroms):
                    1          2          3
     1  O    0.000000
     2  Cl   1.660262   0.000000
     3  H    0.970877   2.288309   0.000000
 Stoichiometry    ClHO
 Framework group  CS[SG(ClHO)]
 Deg. of freedom     3
 Full point group                 CS      NOp   2
 Largest Abelian subgroup         CS      NOp   2
 Largest concise Abelian subgroup C1      NOp   1
                         Standard orientation:                         
 ---------------------------------------------------------------------
 Center     Atomic      Atomic             Coordinates (Angstroms)
 Number     Number       Type             X           Y           Z
 ---------------------------------------------------------------------
      1          8           0        0.032823    1.067749   -0.000000
      2         17           0        0.032823   -0.592512    0.000000
      3          1           0       -0.820563    1.530714   -0.000000
 ---------------------------------------------------------------------
 Rotational constants (GHZ):         762.3770417          15.3864540          15.0820646
 Standard basis: SVP (5D, 7F)
 There are    29 symmetry adapted cartesian basis functions of A'  symmetry.
 There are    10 symmetry adapted cartesian basis functions of A"  symmetry.
 There are    27 symmetry adapted basis functions of A'  symmetry.
 There are    10 symmetry adapted basis functions of A"  symmetry.
    37 basis functions,    69 primitive gaussians,    39 cartesian basis functions
    13 alpha electrons       13 beta electrons
       nuclear repulsion energy        51.6391404048 Hartrees.
 NAtoms=    3 NActive=    3 NUniq=    3 SFac= 1.00D+00 NAtFMM=   60 NAOKFM=F Big=F
 Integral buffers will be    131072 words long.
 Raffenetti 2 integral format.
 Two-electron integral symmetry is turned on.
 Nuclear repulsion after empirical dispersion term =       51.6375355730 Hartrees.
 One-electron integrals computed using PRISM.
 NBasis=    37 RedAO= T EigKep=  3.39D-02  NBF=    27    10
 NBsUse=    37 1.00D-06 EigRej= -1.00D+00 NBFU=    27    10
 Initial guess from the checkpoint file:  "/tmp/Gau-30380.chk"
 B after Tr=     0.000000    0.000000    0.000000
         Rot=    0.999988    0.000000    0.000000    0.004937 Ang=   0.57 deg.
 Initial guess orbital symmetries:
       Occupied  (A') (A') (A') (A') (A') (A") (A') (A') (A') (A')
                 (A") (A') (A")
       Virtual   (A') (A') (A') (A') (A') (A") (A') (A') (A") (A')
                 (A") (A') (A") (A') (A') (A') (A") (A') (A') (A")
                 (A') (A") (A') (A')
 ExpMin= 1.22D-01 ExpMax= 1.04D+04 ExpMxC= 1.57D+03 IAcc=2 IRadAn=         4 AccDes= 0.00D+00
 Harris functional with IExCor=  402 and IRadAn=       4 diagonalized for initial guess.
 HarFok:  IExCor=  402 AccDes= 0.00D+00 IRadAn=         4 IDoV= 1 UseB2=F ITyADJ=14
 ICtDFT=  3500011 ScaDFX=  1.000000  1.000000  1.000000  1.000000
 FoFCou: FMM=F IPFlag=           0 FMFlag=      100000 FMFlg1=           0
         NFxFlg=           0 DoJE=T BraDBF=F KetDBF=T FulRan=T
         wScrn=  0.000000 ICntrl=       500 IOpCl=  0 I1Cent=   200000004 NGrid=           0
         NMat0=    1 NMatS0=      1 NMatT0=    0 NMatD0=    1 NMtDS0=    0 NMtDT0=    0
 Petite list used in FoFCou.
 Keep R1 ints in memory in symmetry-blocked form, NReq=7153137.
 Requested convergence on RMS density matrix=1.00D-08 within 128 cycles.
 Requested convergence on MAX density matrix=1.00D-06.
 Requested convergence on             energy=1.00D-06.
 No special actions if energy rises.
 Integral accuracy reduced to 1.0D-05 until final iterations.
 Initial convergence to 1.0D-05 achieved.  Increase integral accuracy.
 SCF Done:  E(RB3LYP) =  -535.753054423     A.U. after   11 cycles
            NFock= 11  Conv=0.43D-08     -V/T= 2.0025
 Calling FoFJK, ICntrl=      2127 FMM=F ISym2X=1 I1Cent= 0 IOpClX= 0 NMat=1 NMatS=1 NMatT=0.
 ***** Axes restored to original set *****
 -------------------------------------------------------------------
 Center     Atomic                   Forces (Hartrees/Bohr)
 Number     Number              X              Y              Z
 -------------------------------------------------------------------
      1        8           0.027844631    0.012819295   -0.032741020
      2       17          -0.014345650   -0.007207536    0.014457632
      3        1          -0.013498981   -0.005611759    0.018283388
 -------------------------------------------------------------------
 Cartesian Forces:  Max     0.032741020 RMS     0.018337570

 GradGradGradGradGradGradGradGradGradGradGradGradGradGradGradGradGradGrad
 Berny optimization.
 FormGI is forming the generalized inverse of G from B-inverse, IUseBI=4.
 Internal  Forces:  Max     0.042940782 RMS     0.026605551
 Search for a saddle point.
 Step number   2 out of a maximum of  100
 All quantities printed in internal units (Hartrees-Bohrs-Radians)
 Swapping is turned off.
 Update second derivatives using D2CorX and points    1    2
 The second derivative matrix:
                          R1        R2        A1
           R1           0.34803
           R2          -0.01077   0.53230
           A1           0.04115  -0.00083   0.17119
 ITU=  0  0
     Eigenvalues ---    0.16208   0.35649   0.53295
 Eigenvectors required to have negative eigenvalues:
                          A1        R1        R2
   1                   -0.97632   0.21630   0.00412
 RFO step:  Lambda0=1.740004053D-01 Lambda=-1.38855212D-04.
 Linear search not attempted -- option 19 set.
 Iteration  1 RMS(Cart)=  0.01954755 RMS(Int)=  0.00014497
 Iteration  2 RMS(Cart)=  0.00011047 RMS(Int)=  0.00000000
 Iteration  3 RMS(Cart)=  0.00000000 RMS(Int)=  0.00000000
 ClnCor:  largest displacement from symmetrization is 3.66D-15 for atom     3.
 Variable       Old X    -DE/DX   Delta X   Delta X   Delta X     New X
                                 (Linear)    (Quad)   (Total)
    R1        3.13744   0.01672   0.00000   0.01498   0.01498   3.15242
    R2        1.83469   0.00044   0.00000   0.00078   0.00078   1.83547
    A1        2.06787  -0.04294   0.00000   0.02353   0.02353   2.09140
         Item               Value     Threshold  Converged?
 Maximum Force            0.042941     0.000450     NO 
 RMS     Force            0.026606     0.000300     NO 
 Maximum Displacement     0.021456     0.001800     NO 
 RMS     Displacement     0.019520     0.001200     NO 
 Predicted change in Energy= 8.606648D-04
 GradGradGradGradGradGradGradGradGradGradGradGradGradGradGradGradGradGrad

                          Input orientation:                          
 ---------------------------------------------------------------------
 Center     Atomic      Atomic             Coordinates (Angstroms)
 Number     Number       Type             X           Y           Z
 ---------------------------------------------------------------------
      1          8           0        3.145425   -4.998697    1.420400
      2         17           0        2.782816   -4.866339    3.043313
      3          1           0        2.595638   -5.557068    0.846501
 ---------------------------------------------------------------------
                    Distance matrix (angstroms):
                    1          2          3
     1  O    0.000000
     2  Cl   1.668187   0.000000
     3  H    0.971290   2.310438   0.000000
 Stoichiometry    ClHO
 Framework group  CS[SG(ClHO)]
 Deg. of freedom     3
 Full point group                 CS      NOp   2
 Largest Abelian subgroup         CS      NOp   2
 Largest concise Abelian subgroup C1      NOp   1
                         Standard orientation:                         
 ---------------------------------------------------------------------
 Center     Atomic      Atomic             Coordinates (Angstroms)
 Number     Number       Type             X           Y           Z
 ---------------------------------------------------------------------
      1          8           0        0.032408    1.072156   -0.000000
      2         17           0        0.032408   -0.596031    0.000000
      3          1           0       -0.810206    1.555277   -0.000000
 ---------------------------------------------------------------------
 Rotational constants (GHZ):         783.3260931          15.2146552          14.9247693
 Standard basis: SVP (5D, 7F)
 There are    29 symmetry adapted cartesian basis functions of A'  symmetry.
 There are    10 symmetry adapted cartesian basis functions of A"  symmetry.
 There are    27 symmetry adapted basis functions of A'  symmetry.
 There are    10 symmetry adapted basis functions of A"  symmetry.
    37 basis functions,    69 primitive gaussians,    39 cartesian basis functions
    13 alpha electrons       13 beta electrons
       nuclear repulsion energy        51.3936945037 Hartrees.
 NAtoms=    3 NActive=    3 NUniq=    3 SFac= 1.00D+00 NAtFMM=   60 NAOKFM=F Big=F
 Integral buffers will be    131072 words long.
 Raffenetti 2 integral format.
 Two-electron integral symmetry is turned on.
 Nuclear repulsion after empirical dispersion term =       51.3920920932 Hartrees.
 One-electron integrals computed using PRISM.
 NBasis=    37 RedAO= T EigKep=  3.46D-02  NBF=    27    10
 NBsUse=    37 1.00D-06 EigRej= -1.00D+00 NBFU=    27    10
 Initial guess from the checkpoint file:  "/tmp/Gau-30380.chk"
 B after Tr=    -0.000000   -0.000000   -0.000000
         Rot=    0.999999   -0.000000    0.000000    0.001027 Ang=   0.12 deg.
 Initial guess orbital symmetries:
       Occupied  (A') (A') (A') (A') (A') (A") (A') (A') (A') (A')
                 (A") (A') (A")
       Virtual   (A') (A') (A') (A') (A') (A") (A') (A') (A") (A')
                 (A") (A') (A") (A') (A') (A') (A") (A') (A') (A")
                 (A') (A") (A') (A')
 ExpMin= 1.22D-01 ExpMax= 1.04D+04 ExpMxC= 1.57D+03 IAcc=2 IRadAn=         4 AccDes= 0.00D+00
 Harris functional with IExCor=  402 and IRadAn=       4 diagonalized for initial guess.
 HarFok:  IExCor=  402 AccDes= 0.00D+00 IRadAn=         4 IDoV= 1 UseB2=F ITyADJ=14
 ICtDFT=  3500011 ScaDFX=  1.000000  1.000000  1.000000  1.000000
 FoFCou: FMM=F IPFlag=           0 FMFlag=      100000 FMFlg1=           0
         NFxFlg=           0 DoJE=T BraDBF=F KetDBF=T FulRan=T
         wScrn=  0.000000 ICntrl=       500 IOpCl=  0 I1Cent=   200000004 NGrid=           0
         NMat0=    1 NMatS0=      1 NMatT0=    0 NMatD0=    1 NMtDS0=    0 NMtDT0=    0
 Petite list used in FoFCou.
 Keep R1 ints in memory in symmetry-blocked form, NReq=7153137.
 Requested convergence on RMS density matrix=1.00D-08 within 128 cycles.
 Requested convergence on MAX density matrix=1.00D-06.
 Requested convergence on             energy=1.00D-06.
 No special actions if energy rises.
 Integral accuracy reduced to 1.0D-05 until final iterations.
 Initial convergence to 1.0D-05 achieved.  Increase integral accuracy.
 SCF Done:  E(RB3LYP) =  -535.752206080     A.U. after   10 cycles
            NFock= 10  Conv=0.63D-08     -V/T= 2.0025
 Calling FoFJK, ICntrl=      2127 FMM=F ISym2X=1 I1Cent= 0 IOpClX= 0 NMat=1 NMatS=1 NMatT=0.
 ***** Axes restored to original set *****
 -------------------------------------------------------------------
 Center     Atomic                   Forces (Hartrees/Bohr)
 Number     Number              X              Y              Z
 -------------------------------------------------------------------
      1        8           0.028929937    0.014505171   -0.029274892
      2       17          -0.014090868   -0.008303390    0.009308075
      3        1          -0.014839069   -0.006201780    0.019966818
 -------------------------------------------------------------------
 Cartesian Forces:  Max     0.029274892 RMS     0.017999486

 GradGradGradGradGradGradGradGradGradGradGradGradGradGradGradGradGradGrad
 Berny optimization.
 FormGI is forming the generalized inverse of G from B-inverse, IUseBI=4.
 Internal  Forces:  Max     0.047057397 RMS     0.027962766
 Search for a saddle point.
 Step number   3 out of a maximum of  100
 All quantities printed in internal units (Hartrees-Bohrs-Radians)
 Swapping is turned off.
 Update second derivatives using D2CorX and points    1    2    3
 The second derivative matrix:
                          R1        R2        A1
           R1           0.31748
           R2          -0.00985   0.53230
           A1           0.02170   0.00002   0.16114
 ITU=  0  0  0
     Eigenvalues ---    0.15818   0.31998   0.53275
 Eigenvectors required to have negative eigenvalues:
                          A1        R1        R2
   1                   -0.99082   0.13517   0.00361
 RFO step:  Lambda0=1.716943098D-01 Lambda=-7.78441988D-05.
 Linear search not attempted -- option 19 set.
 Iteration  1 RMS(Cart)=  0.01516482 RMS(Int)=  0.00007998
 Iteration  2 RMS(Cart)=  0.00006083 RMS(Int)=  0.00000000
 Iteration  3 RMS(Cart)=  0.00000000 RMS(Int)=  0.00000000
 ClnCor:  largest displacement from symmetrization is 2.19D-15 for atom     3.
 Variable       Old X    -DE/DX   Delta X   Delta X   Delta X     New X
                                 (Linear)    (Quad)   (Total)
    R1        3.15242   0.01146   0.00000   0.01334   0.01334   3.16575
    R2        1.83547   0.00017   0.00000   0.00022   0.00022   1.83569
    A1        2.09140  -0.04706   0.00000   0.01756   0.01756   2.10895
         Item               Value     Threshold  Converged?
 Maximum Force            0.047057     0.000450     NO 
 RMS     Force            0.027963     0.000300     NO 
 Maximum Displacement     0.016321     0.001800     NO 
 RMS     Displacement     0.015151     0.001200     NO 
 Predicted change in Energy= 7.313970D-04
 GradGradGradGradGradGradGradGradGradGradGradGradGradGradGradGradGradGrad

                          Input orientation:                          
 ---------------------------------------------------------------------
 Center     Atomic      Atomic             Coordinates (Angstroms)
 Number     Number       Type             X           Y           Z
 ---------------------------------------------------------------------
      1          8           0        3.141226   -5.001791    1.420696
      2         17           0        2.784698   -4.862833    3.051654
      3          1           0        2.597955   -5.557480    0.837864
 ---------------------------------------------------------------------
                    Distance matrix (angstroms):
                    1          2          3
     1  O    0.000000
     2  Cl   1.675245   0.000000
     3  H    0.971405   2.327719   0.000000
 Stoichiometry    ClHO
 Framework group  CS[SG(ClHO)]
 Deg. of freedom     3
 Full point group                 CS      NOp   2
 Largest Abelian subgroup         CS      NOp   2
 Largest concise Abelian subgroup C1      NOp   1
                         Standard orientation:                         
 ---------------------------------------------------------------------
 Center     Atomic      Atomic             Coordinates (Angstroms)
 Number     Number       Type             X           Y           Z
 ---------------------------------------------------------------------
      1          8           0        0.032081    1.076203    0.000000
      2         17           0        0.032081   -0.599043   -0.000000
      3          1           0       -0.802021    1.574100    0.000000
 ---------------------------------------------------------------------
 Rotational constants (GHZ):         800.3621031          15.0685249          14.7900702
 Standard basis: SVP (5D, 7F)
 There are    29 symmetry adapted cartesian basis functions of A'  symmetry.
 There are    10 symmetry adapted cartesian basis functions of A"  symmetry.
 There are    27 symmetry adapted basis functions of A'  symmetry.
 There are    10 symmetry adapted basis functions of A"  symmetry.
    37 basis functions,    69 primitive gaussians,    39 cartesian basis functions
    13 alpha electrons       13 beta electrons
       nuclear repulsion energy        51.1825083081 Hartrees.
 NAtoms=    3 NActive=    3 NUniq=    3 SFac= 1.00D+00 NAtFMM=   60 NAOKFM=F Big=F
 Integral buffers will be    131072 words long.
 Raffenetti 2 integral format.
 Two-electron integral symmetry is turned on.
 Nuclear repulsion after empirical dispersion term =       51.1809078990 Hartrees.
 One-electron integrals computed using PRISM.
 NBasis=    37 RedAO= T EigKep=  3.52D-02  NBF=    27    10
 NBsUse=    37 1.00D-06 EigRej= -1.00D+00 NBFU=    27    10
 Initial guess from the checkpoint file:  "/tmp/Gau-30380.chk"
 B after Tr=    -0.000000    0.000000    0.000000
         Rot=    1.000000    0.000000   -0.000000    0.000790 Ang=   0.09 deg.
 Initial guess orbital symmetries:
       Occupied  (A') (A') (A') (A') (A') (A") (A') (A') (A') (A')
                 (A") (A') (A")
       Virtual   (A') (A') (A') (A') (A') (A") (A') (A') (A") (A')
                 (A") (A') (A") (A') (A') (A') (A") (A') (A') (A")
                 (A') (A") (A') (A')
 Keep R1 ints in memory in symmetry-blocked form, NReq=7153137.
 Requested convergence on RMS density matrix=1.00D-08 within 128 cycles.
 Requested convergence on MAX density matrix=1.00D-06.
 Requested convergence on             energy=1.00D-06.
 No special actions if energy rises.
 SCF Done:  E(RB3LYP) =  -535.751476941     A.U. after    9 cycles
            NFock=  9  Conv=0.14D-08     -V/T= 2.0025
 Calling FoFJK, ICntrl=      2127 FMM=F ISym2X=1 I1Cent= 0 IOpClX= 0 NMat=1 NMatS=1 NMatT=0.
 ***** Axes restored to original set *****
 -------------------------------------------------------------------
 Center     Atomic                   Forces (Hartrees/Bohr)
 Number     Number              X              Y              Z
 -------------------------------------------------------------------
      1        8           0.029808285    0.015948593   -0.026153781
      2       17          -0.013836507   -0.009166731    0.005089334
      3        1          -0.015971778   -0.006781861    0.021064447
 -------------------------------------------------------------------
 Cartesian Forces:  Max     0.029808285 RMS     0.017867081

 GradGradGradGradGradGradGradGradGradGradGradGradGradGradGradGradGradGrad
 Berny optimization.
 FormGI is forming the generalized inverse of G from B-inverse, IUseBI=4.
 Internal  Forces:  Max     0.050096685 RMS     0.029215725
 Search for a saddle point.
 Step number   4 out of a maximum of  100
 All quantities printed in internal units (Hartrees-Bohrs-Radians)
 Swapping is turned off.
 Update second derivatives using D2CorX and points    1    2    3    4
 The second derivative matrix:
                          R1        R2        A1
           R1           0.30256
           R2          -0.00929   0.53224
           A1           0.01634   0.00013   0.16071
 ITU=  0  0  0  0
     Eigenvalues ---    0.15885   0.30405   0.53262
 Eigenvectors required to have negative eigenvalues:
                          A1        R1        R2
   1                   -0.99357   0.11313   0.00315
 RFO step:  Lambda0=1.735857788D-01 Lambda=-6.68250813D-06.
 Linear search not attempted -- option 19 set.
 Iteration  1 RMS(Cart)=  0.00453588 RMS(Int)=  0.00000700
 Iteration  2 RMS(Cart)=  0.00000532 RMS(Int)=  0.00000000
 Iteration  3 RMS(Cart)=  0.00000000 RMS(Int)=  0.00000000
 ClnCor:  largest displacement from symmetrization is 2.39D-15 for atom     3.
 Variable       Old X    -DE/DX   Delta X   Delta X   Delta X     New X
                                 (Linear)    (Quad)   (Total)
    R1        3.16575   0.00714   0.00000   0.00413   0.00413   3.16988
    R2        1.83569   0.00017   0.00000   0.00009   0.00009   1.83578
    A1        2.10895  -0.05010   0.00000   0.00519   0.00519   2.11414
         Item               Value     Threshold  Converged?
 Maximum Force            0.050097     0.000450     NO 
 RMS     Force            0.029216     0.000300     NO 
 Maximum Displacement     0.004868     0.001800     NO 
 RMS     Displacement     0.004535     0.001200     NO 
 Predicted change in Energy= 2.355107D-04
 GradGradGradGradGradGradGradGradGradGradGradGradGradGradGradGradGradGrad

                          Input orientation:                          
 ---------------------------------------------------------------------
 Center     Atomic      Atomic             Coordinates (Angstroms)
 Number     Number       Type             X           Y           Z
 ---------------------------------------------------------------------
      1          8           0        3.139984   -5.002714    1.420752
      2         17           0        2.785251   -4.861785    3.054174
      3          1           0        2.598643   -5.557605    0.835288
 ---------------------------------------------------------------------
                    Distance matrix (angstroms):
                    1          2          3
     1  O    0.000000
     2  Cl   1.677429   0.000000
     3  H    0.971454   2.332904   0.000000
 Stoichiometry    ClHO
 Framework group  CS[SG(ClHO)]
 Deg. of freedom     3
 Full point group                 CS      NOp   2
 Largest Abelian subgroup         CS      NOp   2
 Largest concise Abelian subgroup C1      NOp   1
                         Standard orientation:                         
 ---------------------------------------------------------------------
 Center     Atomic      Atomic             Coordinates (Angstroms)
 Number     Number       Type             X           Y           Z
 ---------------------------------------------------------------------
      1          8           0        0.031983    1.077463   -0.000000
      2         17           0        0.031983   -0.599965    0.000000
      3          1           0       -0.799567    1.579706   -0.000000
 ---------------------------------------------------------------------
 Rotational constants (GHZ):         805.5652704          15.0240539          14.7489806
 Standard basis: SVP (5D, 7F)
 There are    29 symmetry adapted cartesian basis functions of A'  symmetry.
 There are    10 symmetry adapted cartesian basis functions of A"  symmetry.
 There are    27 symmetry adapted basis functions of A'  symmetry.
 There are    10 symmetry adapted basis functions of A"  symmetry.
    37 basis functions,    69 primitive gaussians,    39 cartesian basis functions
    13 alpha electrons       13 beta electrons
       nuclear repulsion energy        51.1177826562 Hartrees.
 NAtoms=    3 NActive=    3 NUniq=    3 SFac= 1.00D+00 NAtFMM=   60 NAOKFM=F Big=F
 Integral buffers will be    131072 words long.
 Raffenetti 2 integral format.
 Two-electron integral symmetry is turned on.
 Nuclear repulsion after empirical dispersion term =       51.1161828646 Hartrees.
 One-electron integrals computed using PRISM.
 NBasis=    37 RedAO= T EigKep=  3.54D-02  NBF=    27    10
 NBsUse=    37 1.00D-06 EigRej= -1.00D+00 NBFU=    27    10
 Initial guess from the checkpoint file:  "/tmp/Gau-30380.chk"
 B after Tr=     0.000000    0.000000   -0.000000
         Rot=    1.000000    0.000000   -0.000000    0.000234 Ang=   0.03 deg.
 Initial guess orbital symmetries:
       Occupied  (A') (A') (A') (A') (A') (A") (A') (A') (A') (A')
                 (A") (A') (A")
       Virtual   (A') (A') (A') (A') (A') (A") (A') (A') (A") (A')
                 (A") (A') (A") (A') (A') (A') (A") (A') (A') (A")
                 (A') (A") (A') (A')
 Keep R1 ints in memory in symmetry-blocked form, NReq=7153137.
 Requested convergence on RMS density matrix=1.00D-08 within 128 cycles.
 Requested convergence on MAX density matrix=1.00D-06.
 Requested convergence on             energy=1.00D-06.
 No special actions if energy rises.
 SCF Done:  E(RB3LYP) =  -535.751241556     A.U. after    8 cycles
            NFock=  8  Conv=0.31D-08     -V/T= 2.0025
 Calling FoFJK, ICntrl=      2127 FMM=F ISym2X=1 I1Cent= 0 IOpClX= 0 NMat=1 NMatS=1 NMatT=0.
 ***** Axes restored to original set *****
 -------------------------------------------------------------------
 Center     Atomic                   Forces (Hartrees/Bohr)
 Number     Number              X              Y              Z
 -------------------------------------------------------------------
      1        8           0.030061010    0.016372501   -0.025221388
      2       17          -0.013762326   -0.009424355    0.003835644
      3        1          -0.016298683   -0.006948146    0.021385744
 -------------------------------------------------------------------
 Cartesian Forces:  Max     0.030061010 RMS     0.017863830

 GradGradGradGradGradGradGradGradGradGradGradGradGradGradGradGradGradGrad
 Berny optimization.
 FormGI is forming the generalized inverse of G from B-inverse, IUseBI=4.
 Internal  Forces:  Max     0.050981972 RMS     0.029627988
 Search for a saddle point.
 Step number   5 out of a maximum of  100
 All quantities printed in internal units (Hartrees-Bohrs-Radians)
 Swapping is turned off.
 Update second derivatives using D2CorX and points    2    3    4    5
 The second derivative matrix:
                          R1        R2        A1
           R1           0.29583
           R2          -0.00939   0.53224
           A1           0.01269   0.00005   0.16055
 ITU=  0  0  0  0
     Eigenvalues ---    0.15937   0.29664   0.53261
 Eigenvectors required to have negative eigenvalues:
                          A1        R1        R2
   1                   -0.99568   0.09277   0.00248
 RFO step:  Lambda0=1.744561549D-01 Lambda=-4.07253871D-06.
 Linear search not attempted -- option 19 set.
 Iteration  1 RMS(Cart)=  0.00357780 RMS(Int)=  0.00000425
 Iteration  2 RMS(Cart)=  0.00000321 RMS(Int)=  0.00000000
 Iteration  3 RMS(Cart)=  0.00000000 RMS(Int)=  0.00000000
 ClnCor:  largest displacement from symmetrization is 8.88D-16 for atom     2.
 Variable       Old X    -DE/DX   Delta X   Delta X   Delta X     New X
                                 (Linear)    (Quad)   (Total)
    R1        3.16988   0.00585   0.00000   0.00334   0.00334   3.17322
    R2        1.83578   0.00016   0.00000   0.00012   0.00012   1.83590
    A1        2.11414  -0.05098   0.00000   0.00403   0.00403   2.11817
         Item               Value     Threshold  Converged?
 Maximum Force            0.050982     0.000450     NO 
 RMS     Force            0.029628     0.000300     NO 
 Maximum Displacement     0.003840     0.001800     NO 
 RMS     Displacement     0.003577     0.001200     NO 
 Predicted change in Energy= 1.891519D-04
 GradGradGradGradGradGradGradGradGradGradGradGradGradGradGradGradGradGrad

                          Input orientation:                          
 ---------------------------------------------------------------------
 Center     Atomic      Atomic             Coordinates (Angstroms)
 Number     Number       Type             X           Y           Z
 ---------------------------------------------------------------------
      1          8           0        3.139026   -5.003431    1.420776
      2         17           0        2.785679   -4.860960    3.056182
      3          1           0        2.599174   -5.557713    0.833257
 ---------------------------------------------------------------------
                    Distance matrix (angstroms):
                    1          2          3
     1  O    0.000000
     2  Cl   1.679198   0.000000
     3  H    0.971518   2.337016   0.000000
 Stoichiometry    ClHO
 Framework group  CS[SG(ClHO)]
 Deg. of freedom     3
 Full point group                 CS      NOp   2
 Largest Abelian subgroup         CS      NOp   2
 Largest concise Abelian subgroup C1      NOp   1
                         Standard orientation:                         
 ---------------------------------------------------------------------
 Center     Atomic      Atomic             Coordinates (Angstroms)
 Number     Number       Type             X           Y           Z
 ---------------------------------------------------------------------
      1          8           0        0.031907    1.078490    0.000000
      2         17           0        0.031907   -0.600708   -0.000000
      3          1           0       -0.797666    1.584116    0.000000
 ---------------------------------------------------------------------
 Rotational constants (GHZ):         809.6287738          14.9883558          14.7159254
 Standard basis: SVP (5D, 7F)
 There are    29 symmetry adapted cartesian basis functions of A'  symmetry.
 There are    10 symmetry adapted cartesian basis functions of A"  symmetry.
 There are    27 symmetry adapted basis functions of A'  symmetry.
 There are    10 symmetry adapted basis functions of A"  symmetry.
    37 basis functions,    69 primitive gaussians,    39 cartesian basis functions
    13 alpha electrons       13 beta electrons
       nuclear repulsion energy        51.0655072930 Hartrees.
 NAtoms=    3 NActive=    3 NUniq=    3 SFac= 1.00D+00 NAtFMM=   60 NAOKFM=F Big=F
 Integral buffers will be    131072 words long.
 Raffenetti 2 integral format.
 Two-electron integral symmetry is turned on.
 Nuclear repulsion after empirical dispersion term =       51.0639079967 Hartrees.
 One-electron integrals computed using PRISM.
 NBasis=    37 RedAO= T EigKep=  3.56D-02  NBF=    27    10
 NBsUse=    37 1.00D-06 EigRej= -1.00D+00 NBFU=    27    10
 Initial guess from the checkpoint file:  "/tmp/Gau-30380.chk"
 B after Tr=    -0.000000   -0.000000    0.000000
         Rot=    1.000000   -0.000000    0.000000    0.000183 Ang=   0.02 deg.
 Initial guess orbital symmetries:
       Occupied  (A') (A') (A') (A') (A') (A") (A') (A') (A') (A')
                 (A") (A') (A")
       Virtual   (A') (A') (A') (A') (A') (A") (A') (A') (A") (A')
                 (A") (A') (A") (A') (A') (A') (A") (A') (A') (A")
                 (A') (A") (A') (A')
 Keep R1 ints in memory in symmetry-blocked form, NReq=7153137.
 Requested convergence on RMS density matrix=1.00D-08 within 128 cycles.
 Requested convergence on MAX density matrix=1.00D-06.
 Requested convergence on             energy=1.00D-06.
 No special actions if energy rises.
 SCF Done:  E(RB3LYP) =  -535.751052435     A.U. after    8 cycles
            NFock=  8  Conv=0.25D-08     -V/T= 2.0025
 Calling FoFJK, ICntrl=      2127 FMM=F ISym2X=1 I1Cent= 0 IOpClX= 0 NMat=1 NMatS=1 NMatT=0.
 ***** Axes restored to original set *****
 -------------------------------------------------------------------
 Center     Atomic                   Forces (Hartrees/Bohr)
 Number     Number              X              Y              Z
 -------------------------------------------------------------------
      1        8           0.030241299    0.016692050   -0.024487708
      2       17          -0.013701405   -0.009627325    0.002840441
      3        1          -0.016539894   -0.007064726    0.021647266
 -------------------------------------------------------------------
 Cartesian Forces:  Max     0.030241299 RMS     0.017867951

 GradGradGradGradGradGradGradGradGradGradGradGradGradGradGradGradGradGrad
 Berny optimization.
 FormGI is forming the generalized inverse of G from B-inverse, IUseBI=4.
 Internal  Forces:  Max     0.051668955 RMS     0.029961380
 Search for a saddle point.
 Step number   6 out of a maximum of  100
 All quantities printed in internal units (Hartrees-Bohrs-Radians)
 Swapping is turned off.
 Second derivative matrix not updated -- analytic derivatives used.
 The second derivative matrix:
                          R1        R2        A1
           R1           0.29583
           R2          -0.00939   0.53224
           A1           0.01269   0.00005   0.16055
 ITU=  0  0  0  0
     Eigenvalues ---    0.15937   0.29664   0.53261
 Eigenvectors required to have negative eigenvalues:
                          A1        R1        R2
   1                   -0.99568   0.09277   0.00248
 RFO step:  Lambda0=1.747764229D-01 Lambda= 0.00000000D+00.
 Linear search not attempted -- option 19 set.
 Iteration  1 RMS(Cart)=  0.00006003 RMS(Int)=  0.00000000
 Iteration  2 RMS(Cart)=  0.00000000 RMS(Int)=  0.00000000
 ClnCor:  largest displacement from symmetrization is 9.93D-16 for atom     3.
 Variable       Old X    -DE/DX   Delta X   Delta X   Delta X     New X
                                 (Linear)    (Quad)   (Total)
    R1        3.17322   0.00483   0.00000   0.00006   0.00006   3.17328
    R2        1.83590   0.00013   0.00000   0.00000   0.00000   1.83591
    A1        2.11817  -0.05167   0.00000   0.00007   0.00007   2.11824
         Item               Value     Threshold  Converged?
 Maximum Force            0.051669     0.000450     NO 
 RMS     Force            0.029961     0.000300     NO 
 Maximum Displacement     0.000065     0.001800     YES
 RMS     Displacement     0.000060     0.001200     YES
 Predicted change in Energy= 3.210836D-06
 GradGradGradGradGradGradGradGradGradGradGradGradGradGradGradGradGradGrad

                          Input orientation:                          
 ---------------------------------------------------------------------
 Center     Atomic      Atomic             Coordinates (Angstroms)
 Number     Number       Type             X           Y           Z
 ---------------------------------------------------------------------
      1          8           0        3.139010   -5.003443    1.420777
      2         17           0        2.785686   -4.860947    3.056216
      3          1           0        2.599183   -5.557715    0.833222
 ---------------------------------------------------------------------
                    Distance matrix (angstroms):
                    1          2          3
     1  O    0.000000
     2  Cl   1.679227   0.000000
     3  H    0.971520   2.337086   0.000000
 Stoichiometry    ClHO
 Framework group  CS[SG(ClHO)]
 Deg. of freedom     3
 Full point group                 CS      NOp   2
 Largest Abelian subgroup         CS      NOp   2
 Largest concise Abelian subgroup C1      NOp   1
                         Standard orientation:                         
 ---------------------------------------------------------------------
 Center     Atomic      Atomic             Coordinates (Angstroms)
 Number     Number       Type             X           Y           Z
 ---------------------------------------------------------------------
      1          8           0        0.031905    1.078507    0.000000
      2         17           0        0.031905   -0.600720   -0.000000
      3          1           0       -0.797635    1.584190    0.000000
 ---------------------------------------------------------------------
 Rotational constants (GHZ):         809.6954289          14.9877609          14.7153739
 Standard basis: SVP (5D, 7F)
 There are    29 symmetry adapted cartesian basis functions of A'  symmetry.
 There are    10 symmetry adapted cartesian basis functions of A"  symmetry.
 There are    27 symmetry adapted basis functions of A'  symmetry.
 There are    10 symmetry adapted basis functions of A"  symmetry.
    37 basis functions,    69 primitive gaussians,    39 cartesian basis functions
    13 alpha electrons       13 beta electrons
       nuclear repulsion energy        51.0646308369 Hartrees.
 NAtoms=    3 NActive=    3 NUniq=    3 SFac= 1.00D+00 NAtFMM=   60 NAOKFM=F Big=F
 Integral buffers will be    131072 words long.
 Raffenetti 2 integral format.
 Two-electron integral symmetry is turned on.
 Nuclear repulsion after empirical dispersion term =       51.0630315490 Hartrees.
 One-electron integrals computed using PRISM.
 NBasis=    37 RedAO= T EigKep=  3.56D-02  NBF=    27    10
 NBsUse=    37 1.00D-06 EigRej= -1.00D+00 NBFU=    27    10
 Initial guess from the checkpoint file:  "/tmp/Gau-30380.chk"
 B after Tr=    -0.000000    0.000000   -0.000000
         Rot=    1.000000   -0.000000    0.000000    0.000003 Ang=   0.00 deg.
 Initial guess orbital symmetries:
       Occupied  (A') (A') (A') (A') (A') (A") (A') (A') (A') (A')
                 (A") (A') (A")
       Virtual   (A') (A') (A') (A') (A') (A") (A') (A') (A") (A')
                 (A") (A') (A") (A') (A') (A') (A") (A') (A') (A")
                 (A') (A") (A') (A')
 Keep R1 ints in memory in symmetry-blocked form, NReq=7153137.
 Requested convergence on RMS density matrix=1.00D-08 within 128 cycles.
 Requested convergence on MAX density matrix=1.00D-06.
 Requested convergence on             energy=1.00D-06.
 No special actions if energy rises.
 SCF Done:  E(RB3LYP) =  -535.751049224     A.U. after    5 cycles
            NFock=  5  Conv=0.56D-08     -V/T= 2.0025
 Calling FoFJK, ICntrl=      2127 FMM=F ISym2X=1 I1Cent= 0 IOpClX= 0 NMat=1 NMatS=1 NMatT=0.
 ***** Axes restored to original set *****
 -------------------------------------------------------------------
 Center     Atomic                   Forces (Hartrees/Bohr)
 Number     Number              X              Y              Z
 -------------------------------------------------------------------
      1        8           0.030243776    0.016696809   -0.024476154
      2       17          -0.013700425   -0.009630705    0.002823973
      3        1          -0.016543351   -0.007066104    0.021652181
 -------------------------------------------------------------------
 Cartesian Forces:  Max     0.030243776 RMS     0.017868059

 GradGradGradGradGradGradGradGradGradGradGradGradGradGradGradGradGradGrad
 Berny optimization.
 FormGI is forming the generalized inverse of G from B-inverse, IUseBI=4.
 Internal  Forces:  Max     0.051680384 RMS     0.029967041
 Search for a saddle point.
 Step number   7 out of a maximum of  100
 All quantities printed in internal units (Hartrees-Bohrs-Radians)
 Swapping is turned off.
 Update second derivatives using D2CorX and points    4    5    7
 The second derivative matrix:
                          R1        R2        A1
           R1           0.29250
           R2          -0.00963   0.53222
           A1           0.01095  -0.00016   0.16126
 ITU=  0  0  0  0
     Eigenvalues ---    0.16035   0.29302   0.53261
 Eigenvectors required to have negative eigenvalues:
                          A1        R1        R2
   1                   -0.99657   0.08271   0.00171
 RFO step:  Lambda0=1.756821059D-01 Lambda=-9.45552192D-07.
 Linear search not attempted -- option 19 set.
 Iteration  1 RMS(Cart)=  0.00173740 RMS(Int)=  0.00000099
 Iteration  2 RMS(Cart)=  0.00000074 RMS(Int)=  0.00000000
 ClnCor:  largest displacement from symmetrization is 3.77D-15 for atom     3.
 Variable       Old X    -DE/DX   Delta X   Delta X   Delta X     New X
                                 (Linear)    (Quad)   (Total)
    R1        3.17328   0.00482   0.00000   0.00164   0.00164   3.17492
    R2        1.83591   0.00013   0.00000   0.00010   0.00010   1.83601
    A1        2.11824  -0.05168   0.00000   0.00194   0.00194   2.12018
         Item               Value     Threshold  Converged?
 Maximum Force            0.051680     0.000450     NO 
 RMS     Force            0.029967     0.000300     NO 
 Maximum Displacement     0.001874     0.001800     NO 
 RMS     Displacement     0.001737     0.001200     NO 
 Predicted change in Energy= 9.300462D-05
 GradGradGradGradGradGradGradGradGradGradGradGradGradGradGradGradGradGrad

                          Input orientation:                          
 ---------------------------------------------------------------------
 Center     Atomic      Atomic             Coordinates (Angstroms)
 Number     Number       Type             X           Y           Z
 ---------------------------------------------------------------------
      1          8           0        3.138555   -5.003783    1.420788
      2         17           0        2.785891   -4.860546    3.057195
      3          1           0        2.599433   -5.557775    0.832230
 ---------------------------------------------------------------------
                    Distance matrix (angstroms):
                    1          2          3
     1  O    0.000000
     2  Cl   1.680094   0.000000
     3  H    0.971576   2.339095   0.000000
 Stoichiometry    ClHO
 Framework group  CS[SG(ClHO)]
 Deg. of freedom     3
 Full point group                 CS      NOp   2
 Largest Abelian subgroup         CS      NOp   2
 Largest concise Abelian subgroup C1      NOp   1
                         Standard orientation:                         
 ---------------------------------------------------------------------
 Center     Atomic      Atomic             Coordinates (Angstroms)
 Number     Number       Type             X           Y           Z
 ---------------------------------------------------------------------
      1          8           0        0.031869    1.079011   -0.000000
      2         17           0        0.031869   -0.601083    0.000000
      3          1           0       -0.796736    1.586330   -0.000000
 ---------------------------------------------------------------------
 Rotational constants (GHZ):         811.6289044          14.9703441          14.6992197
 Standard basis: SVP (5D, 7F)
 There are    29 symmetry adapted cartesian basis functions of A'  symmetry.
 There are    10 symmetry adapted cartesian basis functions of A"  symmetry.
 There are    27 symmetry adapted basis functions of A'  symmetry.
 There are    10 symmetry adapted basis functions of A"  symmetry.
    37 basis functions,    69 primitive gaussians,    39 cartesian basis functions
    13 alpha electrons       13 beta electrons
       nuclear repulsion energy        51.0389641544 Hartrees.
 NAtoms=    3 NActive=    3 NUniq=    3 SFac= 1.00D+00 NAtFMM=   60 NAOKFM=F Big=F
 Integral buffers will be    131072 words long.
 Raffenetti 2 integral format.
 Two-electron integral symmetry is turned on.
 Nuclear repulsion after empirical dispersion term =       51.0373651100 Hartrees.
 One-electron integrals computed using PRISM.
 NBasis=    37 RedAO= T EigKep=  3.57D-02  NBF=    27    10
 NBsUse=    37 1.00D-06 EigRej= -1.00D+00 NBFU=    27    10
 Initial guess from the checkpoint file:  "/tmp/Gau-30380.chk"
 B after Tr=     0.000000    0.000000   -0.000000
         Rot=    1.000000   -0.000000    0.000000    0.000087 Ang=   0.01 deg.
 Initial guess orbital symmetries:
       Occupied  (A') (A') (A') (A') (A') (A") (A') (A') (A') (A')
                 (A") (A') (A")
       Virtual   (A') (A') (A') (A') (A') (A") (A') (A') (A") (A')
                 (A") (A') (A") (A') (A') (A') (A") (A') (A') (A")
                 (A') (A") (A') (A')
 Keep R1 ints in memory in symmetry-blocked form, NReq=7153137.
 Requested convergence on RMS density matrix=1.00D-08 within 128 cycles.
 Requested convergence on MAX density matrix=1.00D-06.
 Requested convergence on             energy=1.00D-06.
 No special actions if energy rises.
 SCF Done:  E(RB3LYP) =  -535.750956224     A.U. after    7 cycles
            NFock=  7  Conv=0.74D-08     -V/T= 2.0025
 Calling FoFJK, ICntrl=      2127 FMM=F ISym2X=1 I1Cent= 0 IOpClX= 0 NMat=1 NMatS=1 NMatT=0.
 ***** Axes restored to original set *****
 -------------------------------------------------------------------
 Center     Atomic                   Forces (Hartrees/Bohr)
 Number     Number              X              Y              Z
 -------------------------------------------------------------------
      1        8           0.030317287    0.016838106   -0.024133012
      2       17          -0.013670870   -0.009728783    0.002342724
      3        1          -0.016646417   -0.007109323    0.021790288
 -------------------------------------------------------------------
 Cartesian Forces:  Max     0.030317287 RMS     0.017871624

 GradGradGradGradGradGradGradGradGradGradGradGradGradGradGradGradGradGrad
 Berny optimization.
 FormGI is forming the generalized inverse of G from B-inverse, IUseBI=4.
 Internal  Forces:  Max     0.052009791 RMS     0.030131414
 Search for a saddle point.
 Step number   8 out of a maximum of  100
 All quantities printed in internal units (Hartrees-Bohrs-Radians)
 Swapping is turned off.
 Update second derivatives using D2CorX and points    5    6    7    8
 The second derivative matrix:
                          R1        R2        A1
           R1           0.29041
           R2          -0.01000   0.53219
           A1           0.00986  -0.00052   0.16163
 ITU=  0  0  0  0
     Eigenvalues ---    0.16088   0.29074   0.53260
 Eigenvectors required to have negative eigenvalues:
                          A1        R1        R2
   1                   -0.99711   0.07598   0.00066
 RFO step:  Lambda0=1.763272628D-01 Lambda=-4.48232846D-07.
 Linear search not attempted -- option 19 set.
 Iteration  1 RMS(Cart)=  0.00120586 RMS(Int)=  0.00000047
 Iteration  2 RMS(Cart)=  0.00000035 RMS(Int)=  0.00000000
 ClnCor:  largest displacement from symmetrization is 2.67D-15 for atom     3.
 Variable       Old X    -DE/DX   Delta X   Delta X   Delta X     New X
                                 (Linear)    (Quad)   (Total)
    R1        3.17492   0.00432   0.00000   0.00114   0.00114   3.17605
    R2        1.83601   0.00009   0.00000   0.00013   0.00013   1.83614
    A1        2.12018  -0.05201   0.00000   0.00133   0.00133   2.12151
         Item               Value     Threshold  Converged?
 Maximum Force            0.052010     0.000450     NO 
 RMS     Force            0.030131     0.000300     NO 
 Maximum Displacement     0.001315     0.001800     YES
 RMS     Displacement     0.001206     0.001200     NO 
 Predicted change in Energy= 6.459164D-05
 GradGradGradGradGradGradGradGradGradGradGradGradGradGradGradGradGradGrad

                          Input orientation:                          
 ---------------------------------------------------------------------
 Center     Atomic      Atomic             Coordinates (Angstroms)
 Number     Number       Type             X           Y           Z
 ---------------------------------------------------------------------
      1          8           0        3.138249   -5.004011    1.420802
      2         17           0        2.786033   -4.860269    3.057878
      3          1           0        2.599597   -5.557825    0.831535
 ---------------------------------------------------------------------
                    Distance matrix (angstroms):
                    1          2          3
     1  O    0.000000
     2  Cl   1.680695   0.000000
     3  H    0.971644   2.340501   0.000000
 Stoichiometry    ClHO
 Framework group  CS[SG(ClHO)]
 Deg. of freedom     3
 Full point group                 CS      NOp   2
 Largest Abelian subgroup         CS      NOp   2
 Largest concise Abelian subgroup C1      NOp   1
                         Standard orientation:                         
 ---------------------------------------------------------------------
 Center     Atomic      Atomic             Coordinates (Angstroms)
 Number     Number       Type             X           Y           Z
 ---------------------------------------------------------------------
      1          8           0        0.031846    1.079360   -0.000000
      2         17           0        0.031846   -0.601335    0.000000
      3          1           0       -0.796142    1.587816    0.000000
 ---------------------------------------------------------------------
 Rotational constants (GHZ):         812.9137393          14.9582858          14.6880142
 Standard basis: SVP (5D, 7F)
 There are    29 symmetry adapted cartesian basis functions of A'  symmetry.
 There are    10 symmetry adapted cartesian basis functions of A"  symmetry.
 There are    27 symmetry adapted basis functions of A'  symmetry.
 There are    10 symmetry adapted basis functions of A"  symmetry.
    37 basis functions,    69 primitive gaussians,    39 cartesian basis functions
    13 alpha electrons       13 beta electrons
       nuclear repulsion energy        51.0210391354 Hartrees.
 NAtoms=    3 NActive=    3 NUniq=    3 SFac= 1.00D+00 NAtFMM=   60 NAOKFM=F Big=F
 Integral buffers will be    131072 words long.
 Raffenetti 2 integral format.
 Two-electron integral symmetry is turned on.
 Nuclear repulsion after empirical dispersion term =       51.0194402617 Hartrees.
 One-electron integrals computed using PRISM.
 NBasis=    37 RedAO= T EigKep=  3.57D-02  NBF=    27    10
 NBsUse=    37 1.00D-06 EigRej= -1.00D+00 NBFU=    27    10
 Initial guess from the checkpoint file:  "/tmp/Gau-30380.chk"
 B after Tr=    -0.000000   -0.000000    0.000000
         Rot=    1.000000    0.000000   -0.000000    0.000059 Ang=   0.01 deg.
 Initial guess orbital symmetries:
       Occupied  (A') (A') (A') (A') (A') (A") (A') (A') (A') (A')
                 (A") (A') (A")
       Virtual   (A') (A') (A') (A') (A') (A") (A') (A') (A") (A')
                 (A") (A') (A") (A') (A') (A') (A") (A') (A') (A")
                 (A') (A") (A') (A')
 Keep R1 ints in memory in symmetry-blocked form, NReq=7153137.
 Requested convergence on RMS density matrix=1.00D-08 within 128 cycles.
 Requested convergence on MAX density matrix=1.00D-06.
 Requested convergence on             energy=1.00D-06.
 No special actions if energy rises.
 SCF Done:  E(RB3LYP) =  -535.750891634     A.U. after    7 cycles
            NFock=  7  Conv=0.50D-08     -V/T= 2.0025
 Calling FoFJK, ICntrl=      2127 FMM=F ISym2X=1 I1Cent= 0 IOpClX= 0 NMat=1 NMatS=1 NMatT=0.
 ***** Axes restored to original set *****
 -------------------------------------------------------------------
 Center     Atomic                   Forces (Hartrees/Bohr)
 Number     Number              X              Y              Z
 -------------------------------------------------------------------
      1        8           0.030351644    0.016918976   -0.023913342
      2       17          -0.013650643   -0.009796241    0.002012026
      3        1          -0.016701001   -0.007122735    0.021901316
 -------------------------------------------------------------------
 Cartesian Forces:  Max     0.030351644 RMS     0.017873012

 GradGradGradGradGradGradGradGradGradGradGradGradGradGradGradGradGradGrad
 Berny optimization.
 FormGI is forming the generalized inverse of G from B-inverse, IUseBI=4.
 Internal  Forces:  Max     0.052235591 RMS     0.030245772
 Search for a saddle point.
 Step number   9 out of a maximum of  100
 All quantities printed in internal units (Hartrees-Bohrs-Radians)
 Swapping is turned off.
 Update second derivatives using D2CorX and points    6    7    8    9
 The second derivative matrix:
                          R1        R2        A1
           R1           0.28922
           R2          -0.01063   0.53207
           A1           0.00931  -0.00117   0.16197
 ITU=  0  0  0  0
     Eigenvalues ---    0.16129   0.28942   0.53255
 Eigenvectors required to have negative eigenvalues:
                          A1        R1        R2
   1                   -0.99737   0.07248  -0.00108
 RFO step:  Lambda0=1.768141320D-01 Lambda=-1.37968269D-07.
 Linear search not attempted -- option 19 set.
 Iteration  1 RMS(Cart)=  0.00067100 RMS(Int)=  0.00000015
 Iteration  2 RMS(Cart)=  0.00000011 RMS(Int)=  0.00000000
 ClnCor:  largest displacement from symmetrization is 2.82D-15 for atom     3.
 Variable       Old X    -DE/DX   Delta X   Delta X   Delta X     New X
                                 (Linear)    (Quad)   (Total)
    R1        3.17605   0.00398   0.00000   0.00060   0.00060   3.17665
    R2        1.83614   0.00004   0.00000   0.00019   0.00019   1.83633
    A1        2.12151  -0.05224   0.00000   0.00072   0.00072   2.12223
         Item               Value     Threshold  Converged?
 Maximum Force            0.052236     0.000450     NO 
 RMS     Force            0.030246     0.000300     NO 
 Maximum Displacement     0.000763     0.001800     YES
 RMS     Displacement     0.000671     0.001200     YES
 Predicted change in Energy= 3.533251D-05
 GradGradGradGradGradGradGradGradGradGradGradGradGradGradGradGradGradGrad

                          Input orientation:                          
 ---------------------------------------------------------------------
 Center     Atomic      Atomic             Coordinates (Angstroms)
 Number     Number       Type             X           Y           Z
 ---------------------------------------------------------------------
      1          8           0        3.138096   -5.004119    1.420828
      2         17           0        2.786111   -4.860116    3.058255
      3          1           0        2.599671   -5.557870    0.831131
 ---------------------------------------------------------------------
                    Distance matrix (angstroms):
                    1          2          3
     1  O    0.000000
     2  Cl   1.681011   0.000000
     3  H    0.971743   2.341304   0.000000
 Stoichiometry    ClHO
 Framework group  CS[SG(ClHO)]
 Deg. of freedom     3
 Full point group                 CS      NOp   2
 Largest Abelian subgroup         CS      NOp   2
 Largest concise Abelian subgroup C1      NOp   1
                         Standard orientation:                         
 ---------------------------------------------------------------------
 Center     Atomic      Atomic             Coordinates (Angstroms)
 Number     Number       Type             X           Y           Z
 ---------------------------------------------------------------------
      1          8           0        0.031835    1.079542    0.000000
      2         17           0        0.031835   -0.601469   -0.000000
      3          1           0       -0.795871    1.588646    0.000000
 ---------------------------------------------------------------------
 Rotational constants (GHZ):         813.5104924          14.9518624          14.6820153
 Standard basis: SVP (5D, 7F)
 There are    29 symmetry adapted cartesian basis functions of A'  symmetry.
 There are    10 symmetry adapted cartesian basis functions of A"  symmetry.
 There are    27 symmetry adapted basis functions of A'  symmetry.
 There are    10 symmetry adapted basis functions of A"  symmetry.
    37 basis functions,    69 primitive gaussians,    39 cartesian basis functions
    13 alpha electrons       13 beta electrons
       nuclear repulsion energy        51.0112145184 Hartrees.
 NAtoms=    3 NActive=    3 NUniq=    3 SFac= 1.00D+00 NAtFMM=   60 NAOKFM=F Big=F
 Integral buffers will be    131072 words long.
 Raffenetti 2 integral format.
 Two-electron integral symmetry is turned on.
 Nuclear repulsion after empirical dispersion term =       51.0096157412 Hartrees.
 One-electron integrals computed using PRISM.
 NBasis=    37 RedAO= T EigKep=  3.57D-02  NBF=    27    10
 NBsUse=    37 1.00D-06 EigRej= -1.00D+00 NBFU=    27    10
 Initial guess from the checkpoint file:  "/tmp/Gau-30380.chk"
 B after Tr=     0.000000    0.000000    0.000000
         Rot=    1.000000   -0.000000    0.000000    0.000030 Ang=   0.00 deg.
 Initial guess orbital symmetries:
       Occupied  (A') (A') (A') (A') (A') (A") (A') (A') (A') (A')
                 (A") (A') (A")
       Virtual   (A') (A') (A') (A') (A') (A") (A') (A') (A") (A')
                 (A") (A') (A") (A') (A') (A') (A") (A') (A') (A")
                 (A') (A") (A') (A')
 Keep R1 ints in memory in symmetry-blocked form, NReq=7153137.
 Requested convergence on RMS density matrix=1.00D-08 within 128 cycles.
 Requested convergence on MAX density matrix=1.00D-06.
 Requested convergence on             energy=1.00D-06.
 No special actions if energy rises.
 SCF Done:  E(RB3LYP) =  -535.750856302     A.U. after    7 cycles
            NFock=  7  Conv=0.19D-08     -V/T= 2.0025
 Calling FoFJK, ICntrl=      2127 FMM=F ISym2X=1 I1Cent= 0 IOpClX= 0 NMat=1 NMatS=1 NMatT=0.
 ***** Axes restored to original set *****
 -------------------------------------------------------------------
 Center     Atomic                   Forces (Hartrees/Bohr)
 Number     Number              X              Y              Z
 -------------------------------------------------------------------
      1        8           0.030337532    0.016927995   -0.023834721
      2       17          -0.013641030   -0.009832288    0.001838919
      3        1          -0.016696502   -0.007095707    0.021995802
 -------------------------------------------------------------------
 Cartesian Forces:  Max     0.030337532 RMS     0.017870172

 GradGradGradGradGradGradGradGradGradGradGradGradGradGradGradGradGradGrad
 Berny optimization.
 FormGI is forming the generalized inverse of G from B-inverse, IUseBI=4.
 Internal  Forces:  Max     0.052357363 RMS     0.030308284
 Search for a saddle point.
 Step number  10 out of a maximum of  100
 All quantities printed in internal units (Hartrees-Bohrs-Radians)
 Swapping is turned off.
 Update second derivatives using D2CorX and points    7    8   10
 The second derivative matrix:
                          R1        R2        A1
           R1           0.28921
           R2          -0.01142   0.53181
           A1           0.00932  -0.00208   0.16200
 ITU=  0  0  0  0
     Eigenvalues ---    0.16132   0.28934   0.53236
 Eigenvectors required to have negative eigenvalues:
                          A1        R1        R2
   1                   -0.99737   0.07236  -0.00336
 RFO step:  Lambda0=1.768946327D-01 Lambda=-2.87339013D-08.
 Linear search not attempted -- option 19 set.
 Iteration  1 RMS(Cart)=  0.00021344 RMS(Int)=  0.00000002
 Iteration  2 RMS(Cart)=  0.00000002 RMS(Int)=  0.00000000
 ClnCor:  largest displacement from symmetrization is 3.39D-15 for atom     3.
 Variable       Old X    -DE/DX   Delta X   Delta X   Delta X     New X
                                 (Linear)    (Quad)   (Total)
    R1        3.17665   0.00381   0.00000   0.00002   0.00002   3.17667
    R2        1.83633  -0.00005   0.00000   0.00023   0.00023   1.83656
    A1        2.12223  -0.05236   0.00000   0.00024   0.00024   2.12246
         Item               Value     Threshold  Converged?
 Maximum Force            0.052357     0.000450     NO 
 RMS     Force            0.030308     0.000300     NO 
 Maximum Displacement     0.000279     0.001800     YES
 RMS     Displacement     0.000213     0.001200     YES
 Predicted change in Energy= 1.228521D-05
 GradGradGradGradGradGradGradGradGradGradGradGradGradGradGradGradGradGrad

                          Input orientation:                          
 ---------------------------------------------------------------------
 Center     Atomic      Atomic             Coordinates (Angstroms)
 Number     Number       Type             X           Y           Z
 ---------------------------------------------------------------------
      1          8           0        3.138062   -5.004128    1.420893
      2         17           0        2.786142   -4.860071    3.058338
      3          1           0        2.599673   -5.557905    0.830984
 ---------------------------------------------------------------------
                    Distance matrix (angstroms):
                    1          2          3
     1  O    0.000000
     2  Cl   1.681020   0.000000
     3  H    0.971866   2.341549   0.000000
 Stoichiometry    ClHO
 Framework group  CS[SG(ClHO)]
 Deg. of freedom     3
 Full point group                 CS      NOp   2
 Largest Abelian subgroup         CS      NOp   2
 Largest concise Abelian subgroup C1      NOp   1
                         Standard orientation:                         
 ---------------------------------------------------------------------
 Center     Atomic      Atomic             Coordinates (Angstroms)
 Number     Number       Type             X           Y           Z
 ---------------------------------------------------------------------
      1          8           0        0.031834    1.079537   -0.000000
      2         17           0        0.031834   -0.601482    0.000000
      3          1           0       -0.795857    1.588901    0.000000
 ---------------------------------------------------------------------
 Rotational constants (GHZ):         813.5604203          14.9513330          14.6815211
 Standard basis: SVP (5D, 7F)
 There are    29 symmetry adapted cartesian basis functions of A'  symmetry.
 There are    10 symmetry adapted cartesian basis functions of A"  symmetry.
 There are    27 symmetry adapted basis functions of A'  symmetry.
 There are    10 symmetry adapted basis functions of A"  symmetry.
    37 basis functions,    69 primitive gaussians,    39 cartesian basis functions
    13 alpha electrons       13 beta electrons
       nuclear repulsion energy        51.0100448853 Hartrees.
 NAtoms=    3 NActive=    3 NUniq=    3 SFac= 1.00D+00 NAtFMM=   60 NAOKFM=F Big=F
 Integral buffers will be    131072 words long.
 Raffenetti 2 integral format.
 Two-electron integral symmetry is turned on.
 Nuclear repulsion after empirical dispersion term =       51.0084461347 Hartrees.
 One-electron integrals computed using PRISM.
 NBasis=    37 RedAO= T EigKep=  3.58D-02  NBF=    27    10
 NBsUse=    37 1.00D-06 EigRej= -1.00D+00 NBFU=    27    10
[...]
           R1           0.28844
           R2          -0.01235   0.51230
           A1           0.03680   0.00556   0.12815
 ITU=  0  0  0  0
     Eigenvalues ---    0.11994   0.29594   0.51302
 Eigenvectors required to have negative eigenvalues:
                          A1        R1        R2
   1                   -0.97645   0.21478   0.02059
 RFO step:  Lambda0=1.446133515D-01 Lambda= 0.00000000D+00.
 Linear search not attempted -- option 19 set.
 Iteration  1 RMS(Cart)=  0.00000002 RMS(Int)=  0.00000000
 ClnCor:  largest displacement from symmetrization is 2.18D-15 for atom     2.
 Variable       Old X    -DE/DX   Delta X   Delta X   Delta X     New X
                                 (Linear)    (Quad)   (Total)
    R1        3.13576   0.01283   0.00000  -0.00000  -0.00000   3.13576
    R2        1.83232   0.00123   0.00000   0.00000   0.00000   1.83232
    A1        2.17829  -0.05833   0.00000   0.00000   0.00000   2.17829
         Item               Value     Threshold  Converged?
 Maximum Force            0.058325     0.000450     NO 
 RMS     Force            0.034486     0.000300     NO 
 Maximum Displacement     0.000000     0.001800     YES
 RMS     Displacement     0.000000     0.001200     YES
 Predicted change in Energy= 1.820265D-09
 GradGradGradGradGradGradGradGradGradGradGradGradGradGradGradGradGradGrad

                          Input orientation:                          
 ---------------------------------------------------------------------
 Center     Atomic      Atomic             Coordinates (Angstroms)
 Number     Number       Type             X           Y           Z
 ---------------------------------------------------------------------
      1          8           0        3.121714   -5.012556    1.436515
      2         17           0        2.794069   -4.854788    3.055549
      3          1           0        2.608095   -5.554760    0.818151
 ---------------------------------------------------------------------
                    Distance matrix (angstroms):
                    1          2          3
     1  O    0.000000
     2  Cl   1.659372   0.000000
     3  H    0.969620   2.351701   0.000000
 Stoichiometry    ClHO
 Framework group  CS[SG(ClHO)]
 Deg. of freedom     3
 Full point group                 CS      NOp   2
 Largest Abelian subgroup         CS      NOp   2
 Largest concise Abelian subgroup C1      NOp   1
                         Standard orientation:                         
 ---------------------------------------------------------------------
 Center     Atomic      Atomic             Coordinates (Angstroms)
 Number     Number       Type             X           Y           Z
 ---------------------------------------------------------------------
      1          8           0        0.030621    1.063687   -0.000000
      2         17           0        0.030621   -0.595685    0.000000
      3          1           0       -0.765518    1.617155   -0.000000
 ---------------------------------------------------------------------
 Rotational constants (GHZ):         883.7843242          15.2665451          15.0073079
 Standard basis: SVP (5D, 7F)
 There are    29 symmetry adapted cartesian basis functions of A'  symmetry.
 There are    10 symmetry adapted cartesian basis functions of A"  symmetry.
 There are    27 symmetry adapted basis functions of A'  symmetry.
 There are    10 symmetry adapted basis functions of A"  symmetry.
    37 basis functions,    69 primitive gaussians,    39 cartesian basis functions
    13 alpha electrons       13 beta electrons
       nuclear repulsion energy        51.5620628340 Hartrees.
 NAtoms=    3 NActive=    3 NUniq=    3 SFac= 1.00D+00 NAtFMM=   60 NAOKFM=F Big=F
 Integral buffers will be    131072 words long.
 Raffenetti 2 integral format.
 Two-electron integral symmetry is turned on.
 Nuclear repulsion after empirical dispersion term =       51.5604648328 Hartrees.
 One-electron integrals computed using PRISM.
 NBasis=    37 RedAO= T EigKep=  3.48D-02  NBF=    27    10
 NBsUse=    37 1.00D-06 EigRej= -1.00D+00 NBFU=    27    10
 Initial guess from the checkpoint file:  "/tmp/Gau-30380.chk"
 B after Tr=     0.000000   -0.000000    0.000000
         Rot=    1.000000    0.000000   -0.000000    0.000000 Ang=   0.00 deg.
 Initial guess orbital symmetries:
       Occupied  (A') (A') (A') (A') (A') (A") (A') (A') (A') (A')
                 (A") (A') (A")
       Virtual   (A') (A') (A') (A') (A') (A") (A') (A') (A") (A')
                 (A") (A') (A") (A') (A') (A') (A") (A') (A') (A")
                 (A') (A") (A') (A')
 Keep R1 ints in memory in symmetry-blocked form, NReq=7153137.
 Requested convergence on RMS density matrix=1.00D-08 within 128 cycles.
 Requested convergence on MAX density matrix=1.00D-06.
 Requested convergence on             energy=1.00D-06.
 No special actions if energy rises.
 SCF Done:  E(RB3LYP) =  -535.747411988     A.U. after    1 cycles
            NFock=  1  Conv=0.30D-08     -V/T= 2.0025
 Calling FoFJK, ICntrl=      2127 FMM=F ISym2X=1 I1Cent= 0 IOpClX= 0 NMat=1 NMatS=1 NMatT=0.
 ***** Axes restored to original set *****
 -------------------------------------------------------------------
 Center     Atomic                   Forces (Hartrees/Bohr)
 Number     Number              X              Y              Z
 -------------------------------------------------------------------
      1        8           0.037114357    0.019594744   -0.033615082
      2       17          -0.017086481   -0.010218704    0.010686928
      3        1          -0.020027876   -0.009376040    0.022928154
 -------------------------------------------------------------------
 Cartesian Forces:  Max     0.037114357 RMS     0.022152777

 GradGradGradGradGradGradGradGradGradGradGradGradGradGradGradGradGradGrad
 Berny optimization.
 Internal  Forces:  Max     0.058325421 RMS     0.034486501
 Search for a saddle point.
 Step number  99 out of a maximum of  100
 All quantities printed in internal units (Hartrees-Bohrs-Radians)
 Swapping is turned off.
 Update second derivatives using D2CorX and points   99
 The second derivative matrix:
                          R1        R2        A1
           R1           0.28844
           R2          -0.01235   0.51230
           A1           0.03680   0.00556   0.12815
 ITU=  0  0  0  0
     Eigenvalues ---    0.11994   0.29594   0.51302
 Eigenvectors required to have negative eigenvalues:
                          A1        R1        R2
   1                   -0.97645   0.21478   0.02059
 RFO step:  Lambda0=1.446133680D-01 Lambda= 0.00000000D+00.
 Linear search not attempted -- option 19 set.
 Iteration  1 RMS(Cart)=  0.00000003 RMS(Int)=  0.00000000
 ClnCor:  largest displacement from symmetrization is 1.33D-15 for atom     3.
 Variable       Old X    -DE/DX   Delta X   Delta X   Delta X     New X
                                 (Linear)    (Quad)   (Total)
    R1        3.13576   0.01283   0.00000  -0.00000  -0.00000   3.13576
    R2        1.83232   0.00123   0.00000  -0.00000  -0.00000   1.83232
    A1        2.17829  -0.05833   0.00000   0.00000   0.00000   2.17829
         Item               Value     Threshold  Converged?
 Maximum Force            0.058325     0.000450     NO 
 RMS     Force            0.034487     0.000300     NO 
 Maximum Displacement     0.000000     0.001800     YES
 RMS     Displacement     0.000000     0.001200     YES
 Predicted change in Energy= 3.038485D-09
 GradGradGradGradGradGradGradGradGradGradGradGradGradGradGradGradGradGrad

                          Input orientation:                          
 ---------------------------------------------------------------------
 Center     Atomic      Atomic             Coordinates (Angstroms)
 Number     Number       Type             X           Y           Z
 ---------------------------------------------------------------------
      1          8           0        3.121714   -5.012556    1.436515
      2         17           0        2.794069   -4.854788    3.055549
      3          1           0        2.608095   -5.554760    0.818151
 ---------------------------------------------------------------------
                    Distance matrix (angstroms):
                    1          2          3
     1  O    0.000000
     2  Cl   1.659372   0.000000
     3  H    0.969620   2.351701   0.000000
 Stoichiometry    ClHO
 Framework group  CS[SG(ClHO)]
 Deg. of freedom     3
 Full point group                 CS      NOp   2
 Largest Abelian subgroup         CS      NOp   2
 Largest concise Abelian subgroup C1      NOp   1
                         Standard orientation:                         
 ---------------------------------------------------------------------
 Center     Atomic      Atomic             Coordinates (Angstroms)
 Number     Number       Type             X           Y           Z
 ---------------------------------------------------------------------
      1          8           0        0.030621    1.063687   -0.000000
      2         17           0        0.030621   -0.595685    0.000000
      3          1           0       -0.765518    1.617155   -0.000000
 ---------------------------------------------------------------------
 Rotational constants (GHZ):         883.7844373          15.2665451          15.0073079
 Standard basis: SVP (5D, 7F)
 There are    29 symmetry adapted cartesian basis functions of A'  symmetry.
 There are    10 symmetry adapted cartesian basis functions of A"  symmetry.
 There are    27 symmetry adapted basis functions of A'  symmetry.
 There are    10 symmetry adapted basis functions of A"  symmetry.
    37 basis functions,    69 primitive gaussians,    39 cartesian basis functions
    13 alpha electrons       13 beta electrons
       nuclear repulsion energy        51.5620630298 Hartrees.
 NAtoms=    3 NActive=    3 NUniq=    3 SFac= 1.00D+00 NAtFMM=   60 NAOKFM=F Big=F
 Integral buffers will be    131072 words long.
 Raffenetti 2 integral format.
 Two-electron integral symmetry is turned on.
 Nuclear repulsion after empirical dispersion term =       51.5604650285 Hartrees.
 One-electron integrals computed using PRISM.
 NBasis=    37 RedAO= T EigKep=  3.48D-02  NBF=    27    10
 NBsUse=    37 1.00D-06 EigRej= -1.00D+00 NBFU=    27    10
 Initial guess from the checkpoint file:  "/tmp/Gau-30380.chk"
 B after Tr=    -0.000000    0.000000   -0.000000
         Rot=    1.000000    0.000000   -0.000000    0.000000 Ang=   0.00 deg.
 Initial guess orbital symmetries:
       Occupied  (A') (A') (A') (A') (A') (A") (A') (A') (A') (A')
                 (A") (A') (A")
       Virtual   (A') (A') (A') (A') (A') (A") (A') (A') (A") (A')
                 (A") (A') (A") (A') (A') (A') (A") (A') (A') (A")
                 (A') (A") (A') (A')
 Keep R1 ints in memory in symmetry-blocked form, NReq=7153137.
 Requested convergence on RMS density matrix=1.00D-08 within 128 cycles.
 Requested convergence on MAX density matrix=1.00D-06.
 Requested convergence on             energy=1.00D-06.
 No special actions if energy rises.
 SCF Done:  E(RB3LYP) =  -535.747411985     A.U. after    1 cycles
            NFock=  1  Conv=0.58D-08     -V/T= 2.0025
 Calling FoFJK, ICntrl=      2127 FMM=F ISym2X=1 I1Cent= 0 IOpClX= 0 NMat=1 NMatS=1 NMatT=0.
 ***** Axes restored to original set *****
 -------------------------------------------------------------------
 Center     Atomic                   Forces (Hartrees/Bohr)
 Number     Number              X              Y              Z
 -------------------------------------------------------------------
      1        8           0.037114377    0.019594777   -0.033615012
      2       17          -0.017086471   -0.010218699    0.010686919
      3        1          -0.020027906   -0.009376078    0.022928093
 -------------------------------------------------------------------
 Cartesian Forces:  Max     0.037114377 RMS     0.022152768

 GradGradGradGradGradGradGradGradGradGradGradGradGradGradGradGradGradGrad
 Berny optimization.
 Internal  Forces:  Max     0.058325389 RMS     0.034486483
 Search for a saddle point.
 Step number 100 out of a maximum of  100
 All quantities printed in internal units (Hartrees-Bohrs-Radians)
 Swapping is turned off.
 Update second derivatives using D2CorX and points  100
 The second derivative matrix:
                          R1        R2        A1
           R1           0.28844
           R2          -0.01235   0.51230
           A1           0.03680   0.00556   0.12815
 ITU=  0  0  0  0
     Eigenvalues ---    0.11994   0.29594   0.51302
 Eigenvectors required to have negative eigenvalues:
                          A1        R1        R2
   1                   -0.97645   0.21478   0.02059
 RFO step:  Lambda0=1.446133461D-01 Lambda= 0.00000000D+00.
 Linear search not attempted -- option 19 set.
 Iteration  1 RMS(Cart)=  0.00000008 RMS(Int)=  0.00000000
 ClnCor:  largest displacement from symmetrization is 8.88D-16 for atom     2.
 Variable       Old X    -DE/DX   Delta X   Delta X   Delta X     New X
                                 (Linear)    (Quad)   (Total)
    R1        3.13576   0.01283   0.00000  -0.00000  -0.00000   3.13576
    R2        1.83232   0.00123   0.00000   0.00000   0.00000   1.83232
    A1        2.17829  -0.05833   0.00000   0.00000   0.00000   2.17829
         Item               Value     Threshold  Converged?
 Maximum Force            0.058325     0.000450     NO 
 RMS     Force            0.034486     0.000300     NO 
 Maximum Displacement     0.000000     0.001800     YES
 RMS     Displacement     0.000000     0.001200     YES
 Predicted change in Energy= 5.880445D-09
 Optimization stopped.
    -- Number of steps exceeded,  NStep= 100
    -- Flag reset to prevent archiving.
                           ----------------------------
                           ! Non-Optimized Parameters !
                           ! (Angstroms and Degrees)  !
 --------------------------                            --------------------------
 ! Name  Definition              Value          Derivative Info.                !
 --------------------------------------------------------------------------------
 ! R1    R(1,2)                  1.6594         -DE/DX =    0.0128              !
 ! R2    R(1,3)                  0.9696         -DE/DX =    0.0012              !
 ! A1    A(2,1,3)              124.8067         -DE/DX =   -0.0583              !
 --------------------------------------------------------------------------------
 GradGradGradGradGradGradGradGradGradGradGradGradGradGradGradGradGradGrad

                          Input orientation:                          
 ---------------------------------------------------------------------
 Center     Atomic      Atomic             Coordinates (Angstroms)
 Number     Number       Type             X           Y           Z
 ---------------------------------------------------------------------
      1          8           0        3.121714   -5.012556    1.436515
      2         17           0        2.794069   -4.854788    3.055549
      3          1           0        2.608095   -5.554760    0.818151
 ---------------------------------------------------------------------
                    Distance matrix (angstroms):
                    1          2          3
     1  O    0.000000
     2  Cl   1.659372   0.000000
     3  H    0.969620   2.351701   0.000000
 Stoichiometry    ClHO
 Framework group  CS[SG(ClHO)]
 Deg. of freedom     3
 Full point group                 CS      NOp   2
 Largest Abelian subgroup         CS      NOp   2
 Largest concise Abelian subgroup C1      NOp   1
                         Standard orientation:                         
 ---------------------------------------------------------------------
 Center     Atomic      Atomic             Coordinates (Angstroms)
 Number     Number       Type             X           Y           Z
 ---------------------------------------------------------------------
      1          8           0        0.030621    1.063687   -0.000000
      2         17           0        0.030621   -0.595685   -0.000000
      3          1           0       -0.765518    1.617155    0.000000
 ---------------------------------------------------------------------
 Rotational constants (GHZ):         883.7844373          15.2665451          15.0073079

 **********************************************************************

            Population analysis using the SCF density.

 **********************************************************************

 Orbital symmetries:
       Occupied  (A') (A') (A') (A') (A') (A") (A') (A') (A') (A')
                 (A") (A') (A")
       Virtual   (A') (A') (A') (A') (A') (A") (A') (A') (A") (A')
                 (A") (A') (A") (A') (A') (A') (A") (A') (A') (A")
                 (A') (A") (A') (A')
 The electronic state is 1-A'.
 Alpha  occ. eigenvalues -- -101.54184 -19.17669  -9.49381  -7.26755  -7.25065
 Alpha  occ. eigenvalues --   -7.25025  -1.04574  -0.79415  -0.53909  -0.41481
 Alpha  occ. eigenvalues --   -0.40125  -0.29678  -0.26792
 Alpha virt. eigenvalues --   -0.05651   0.07477   0.43447   0.54305   0.69866
 Alpha virt. eigenvalues --    0.70155   0.74126   0.76228   0.76264   0.84904
 Alpha virt. eigenvalues --    0.85164   0.95325   0.99420   1.08114   1.16825
 Alpha virt. eigenvalues --    1.21866   1.45399   1.69608   2.16827   2.63148
 Alpha virt. eigenvalues --    2.74579   2.92223   3.06614   3.63391
          Condensed to atoms (all electrons):
               1          2          3
     1  O    7.948804   0.097536   0.313470
     2  Cl   0.097536  16.780142  -0.020371
     3  H    0.313470  -0.020371   0.489785
 Mulliken charges:
               1
     1  O   -0.359810
     2  Cl   0.142693
     3  H    0.217116
 Sum of Mulliken charges =  -0.00000
 Mulliken charges with hydrogens summed into heavy atoms:
               1
     1  O   -0.142693
     2  Cl   0.142693
 Electronic spatial extent (au):  <R**2>=            102.7398
 Charge=             -0.0000 electrons
 Dipole moment (field-independent basis, Debye):
    X=             -1.5372    Y=              0.4274    Z=             -0.0000  Tot=              1.5955
 Quadrupole moment (field-independent basis, Debye-Ang):
   XX=            -17.0530   YY=            -14.6738   ZZ=            -18.5230
   XY=             -2.9047   XZ=             -0.0000   YZ=              0.0000
 Traceless Quadrupole moment (field-independent basis, Debye-Ang):
   XX=             -0.3031   YY=              2.0761   ZZ=             -1.7731
   XY=             -2.9047   XZ=             -0.0000   YZ=              0.0000
 Octapole moment (field-independent basis, Debye-Ang**2):
  XXX=             -1.4896  YYY=              4.5739  ZZZ=              0.0000  XYY=             -4.4181
  XXY=              2.8240  XXZ=              0.0000  XZZ=             -0.2170  YZZ=              0.7047
  YYZ=              0.0000  XYZ=             -0.0000
 Hexadecapole moment (field-independent basis, Debye-Ang**3):
 XXXX=            -17.0108 YYYY=            -67.3035 ZZZZ=            -16.5287 XXXY=             -0.0507
 XXXZ=             -0.0000 YYYX=             -6.1384 YYYZ=              0.0000 ZZZX=             -0.0000
 ZZZY=              0.0000 XXYY=            -14.1809 XXZZ=             -5.7321 YYZZ=            -17.4802
 XXYZ=              0.0000 YYXZ=             -0.0000 ZZXY=              0.4825
 N-N= 5.156046502854D+01 E-N=-1.376188110793D+03  KE= 5.344168532739D+02
 Symmetry A'   KE= 4.836662401220D+02
 Symmetry A"   KE= 5.075061315191D+01


  THE LARGE PRINT GIVETH,
  AND THE SMALL PRINT TAKETH AWAY.

                     -- TOM WAITS
 Error termination request processed by link 9999.
 Error termination via Lnk1e in /share/apps/g16.a03/g16/l9999.exe at Thu Mar  6 16:39:23 2025.
 Job cpu time:       0 days  0 hours 13 minutes 15.7 seconds.
 Elapsed time:       0 days  0 hours  1 minutes 43.2 seconds.
 File lengths (MBytes):  RWF=      6 Int=      0 D2E=      0 Chk=      1 Scr=      1
