70
 energy: -143.150453884253 gnorm: 0.109586552740 xtb: 6.6.1 (8d0f1dd)
O    -1.21328346    -1.28303579     0.50156225
H    -0.72667542    -1.07674146    -0.29843355
H    -2.03526006    -0.79456376     0.43023035
O    -3.57961007    -0.97997269    -1.96769270
H    -3.48508792    -0.12414347    -2.38954659
H    -2.82727820    -1.47349049    -2.29901581
O     0.30796332    -1.04266398     3.03042634
H     0.88066349    -1.81084854     3.06571970
H    -0.26812169    -1.27806882     2.30100946
O    -3.59019821    -0.07938823     0.52923226
H    -4.29890000    -0.65366382     0.23378633
H    -3.44106143     0.67358281    -0.04533828
O     0.56987077    -2.06146773    -4.50887234
H     0.42277886    -1.54177974    -5.30110182
H     0.04698496    -2.86107914    -4.58980517
O     2.29790476    -2.21252870    -1.36073795
H     1.48085074    -1.76870691    -1.59479546
H     3.12917020    -1.87653049    -1.70050615
O    -1.32005965    -3.74131893    -0.97647307
H    -1.08070857    -3.00370205    -0.41258492
H    -0.76356827    -4.45955316    -0.67021255
O    -2.30152928     0.42463438     3.26252415
H    -2.73162230     0.23255751     2.42738067
H    -1.54155188    -0.15822848     3.30770986
O    -0.33512556    -0.95931710    -2.32710035
H    -0.19852137    -1.63991649    -2.98850973
H    -0.32939525    -0.11225294    -2.77630776
O    -1.87125253    -3.41275723    -3.51454395
H    -1.69969497    -3.41572413    -2.57120014
H    -2.08782972    -4.29051853    -3.83386779
O    -2.38394441     1.66953592    -1.73443880
Cl    -2.06686206     2.01782296    -3.37130077
H    -1.47988676     1.70514078    -1.39977710
O     2.00855721     0.75814154     4.29058392
Cl     2.69806859     2.24420176     4.75680673
H     1.09294351     0.92212375     4.54621742
O     2.46687712    -3.05812024     1.30803398
Cl     2.57879168    -4.75484706     1.20925627
H     2.29087513    -2.84956730     0.38276910
O    -0.51073336     2.29126856     4.72062951
Cl    -1.22589495     3.82584776     4.53415862
H    -1.03492311     1.77604025     5.34541185
C     4.64898271    -0.14146869    -0.33331925
C     4.18467928    -0.59758396     0.89432227
C     2.99743683    -0.09523831     1.39211050
C     2.38361464     1.00564007     0.78533214
C     2.91601224     1.54995126    -0.38307430
C     4.09631774     1.01176512    -0.88271029
H     4.58166022    -1.48068788     1.37740458
H     2.65191615    -0.42605349     2.36533826
C    -1.98049029     3.20941295     1.04239009
C    -1.86825845     3.97913967    -0.11812795
C    -3.18127589     3.19704222     1.75780461
C    -2.91968283     4.77706195    -0.55113632
H    -0.90958073     3.98044772    -0.61138376
C    -4.25196386     3.95404561     1.31099888
C    -4.10427968     4.72365870     0.16646079
H    -2.89076982     5.37851784    -1.45044160
H    -5.22408188     4.05256556     1.77583365
Cl     6.02805786    -0.80668404    -1.14624533
Cl    -5.40458700     5.79267949    -0.29072101
N     1.22924242     1.52640492     1.39011617
H     1.05137870     1.09949895     2.28558840
C     0.15980548     1.98837167     0.63931293
O     0.07800948     1.92498814    -0.56423442
N    -0.86816895     2.44441937     1.44152388
H    -0.70802742     2.38324098     2.43473076
H    -3.30686113     2.64883511     2.68577083
H     2.40450938     2.38928794    -0.82561665
Cl     4.79528080     1.80718759    -2.25533660
