5
 energy: -13.583974646567 gnorm: 0.000687336403 xtb: 6.6.1 (8d0f1dd)
O           -1.09622515650587        6.06376586874148        0.45291859303805
Cl          -0.60090136420945        7.12145264311896       -0.59105932106092
H           -1.54356222623119        6.45557186489729        2.07438460311867
O           -1.76508243002603        6.60674272143055        3.01533922694932
H           -1.81238419112789        5.74238417158126        3.43140521281632
