      -----------------------------------------------------------      
     |                   =====================                   |     
     |                           x T B                           |     
     |                   =====================                   |     
     |                         S. Grimme                         |     
     |          Mulliken Center for Theoretical Chemistry        |     
     |                    University of Bonn                     |     
      -----------------------------------------------------------      

   * xtb version 6.6.1 (8d0f1dd) compiled by 'stahn@M-Bot' on 2023-08-01

   xtb is free software: you can redistribute it and/or modify it under
   the terms of the GNU Lesser General Public License as published by
   the Free Software Foundation, either version 3 of the License, or
   (at your option) any later version.
   
   xtb is distributed in the hope that it will be useful,
   but WITHOUT ANY WARRANTY; without even the implied warranty of
   MERCHANTABILITY or FITNESS FOR A PARTICULAR PURPOSE.  See the
   GNU Lesser General Public License for more details.
   
   Cite this work as:
   * C. Bannwarth, E. Caldeweyher, S. Ehlert, A. Hansen, P. Pracht,
     J. Seibert, S. Spicher, S. Grimme, WIREs Comput. Mol. Sci., 2020, 11,
     e01493. DOI: 10.1002/wcms.1493
   
   for GFN2-xTB:
   * C. Bannwarth, S. Ehlert and S. Grimme., J. Chem. Theory Comput., 2019,
     15, 1652-1671. DOI: 10.1021/acs.jctc.8b01176
   for GFN1-xTB:
   * S. Grimme, C. Bannwarth, P. Shushkov, J. Chem. Theory Comput., 2017,
     13, 1989-2009. DOI: 10.1021/acs.jctc.7b00118
   for GFN0-xTB:
   * P. Pracht, E. Caldeweyher, S. Ehlert, S. Grimme, ChemRxiv, 2019, preprint.
     DOI: 10.26434/chemrxiv.8326202.v1
   for GFN-FF:
   * S. Spicher and S. Grimme, Angew. Chem. Int. Ed., 2020, 59, 15665-15673.
     DOI: 10.1002/anie.202004239
   
   for ALPB and GBSA implicit solvation:
   * S. Ehlert, M. Stahn, S. Spicher, S. Grimme, J. Chem. Theory Comput.,
     2021, 17, 4250-4261. DOI: 10.1021/acs.jctc.1c00471
   
   for DFT-D4:
   * E. Caldeweyher, C. Bannwarth and S. Grimme, J. Chem. Phys., 2017,
     147, 034112. DOI: 10.1063/1.4993215
   * E. Caldeweyher, S. Ehlert, A. Hansen, H. Neugebauer, S. Spicher,
     C. Bannwarth and S. Grimme, J. Chem. Phys., 2019, 150, 154122.
     DOI: 10.1063/1.5090222
   * E. Caldeweyher, J.-M. Mewes, S. Ehlert and S. Grimme, Phys. Chem. Chem. Phys.
     2020, 22, 8499-8512. DOI: 10.1039/D0CP00502A
   
   for sTDA-xTB:
   * S. Grimme and C. Bannwarth, J. Chem. Phys., 2016, 145, 054103.
     DOI: 10.1063/1.4959605
   
   in the mass-spec context:
   * V. Asgeirsson, C. Bauer and S. Grimme, Chem. Sci., 2017, 8, 4879.
     DOI: 10.1039/c7sc00601b
   * J. Koopman and S. Grimme, ACS Omega 2019, 4, 12, 15120-15133.
     DOI: 10.1021/acsomega.9b02011
   
   for metadynamics refer to:
   * S. Grimme, J. Chem. Theory Comput., 2019, 155, 2847-2862
     DOI: 10.1021/acs.jctc.9b00143
   
   for SPH calculations refer to:
   * S. Spicher and S. Grimme, J. Chem. Theory Comput., 2021, 17, 1701-1714
     DOI: 10.1021/acs.jctc.0c01306
   
   with help from (in alphabetical order)
   P. Atkinson, C. Bannwarth, F. Bohle, G. Brandenburg, E. Caldeweyher
   M. Checinski, S. Dohm, S. Ehlert, S. Ehrlich, I. Gerasimov, C. Hölzer
   A. Katbashev, J. Koopman, C. Lavigne, S. Lehtola, F. März, M. Müller,
   F. Musil, H. Neugebauer, J. Pisarek, C. Plett, P. Pracht, F. Pultar,
   J. Seibert, P. Shushkov, S. Spicher, M. Stahn, M. Steiner, T. Strunk,
   J. Stückrath, T. Rose, and J. Unsleber
   
 * started run on 2025/04/07 at 09:40:50.830     

           -------------------------------------------------
          |                Calculation Setup                |
           -------------------------------------------------

          program call               : xtb 499.xyz --input 499.inp --opt
          hostname                   : serv11
          coordinate file            : 499.xyz
          omp threads                :                     8

   ID    Z sym.   atoms
    1    8 O      1, 4
    2   17 Cl     2
    3    1 H      3, 5

molecular fragmentation (1/2 indicates fragments):
11122
# atoms in fragment 1/2:     3     2
 fragment masses (1/2) :       52.46       17.01
CMA distance (Bohr)    :   6.805
constraining FC (au)   :  0.0500

           -------------------------------------------------
          |                 G F N 2 - x T B                 |
           -------------------------------------------------

        Reference                      10.1021/acs.jctc.8b01176
      * Hamiltonian:
        H0-scaling (s, p, d)           1.850000    2.230000    2.230000
        zeta-weighting                 0.500000
      * Dispersion:
        s8                             2.700000
        a1                             0.520000
        a2                             5.000000
        s9                             5.000000
      * Repulsion:
        kExp                           1.500000    1.000000
        rExp                           1.000000
      * Coulomb:
        alpha                          2.000000
        third order                    shell-resolved
        anisotropic                    true
        a3                             3.000000
        a5                             4.000000
        cn-shift                       1.200000
        cn-exp                         4.000000
        max-rad                        5.000000


          ...................................................
          :                      SETUP                      :
          :.................................................:
          :  # basis functions                  20          :
          :  # atomic orbitals                  19          :
          :  # shells                            9          :
          :  # electrons                        21          :
          :  max. iterations                   800          :
          :  Hamiltonian                  GFN2-xTB          :
          :  restarted?                      false          :
          :  GBSA solvation                  false          :
          :  PC potential                    false          :
          :  electronic temp.         6000.0000000     K    :
          :  accuracy                    1.0000000          :
          :  -> integral cutoff          0.2500000E+02      :
          :  -> integral neglect         0.1000000E-07      :
          :  -> SCF convergence          0.1000000E-05 Eh   :
          :  -> wf. convergence          0.1000000E-03 e    :
          :  Broyden damping             0.4000000          :
          ...................................................

 iter      E             dE          RMSdq      gap      omega  full diag
   1    -13.3687928 -0.133688E+02  0.727E+00    3.60       0.0  T
   2    -13.0552486  0.313544E+00  0.845E+00    0.09       1.0  T
   3    -13.5035537 -0.448305E+00  0.330E+00    3.66       1.0  T
   4    -13.5567797 -0.532260E-01  0.217E+00    3.09       1.0  T
   5    -13.5564515  0.328223E-03  0.754E-01    3.10       1.0  T
   6    -13.5577628 -0.131128E-02  0.268E-01    3.10       1.0  T
   7    -13.5577997 -0.369227E-04  0.190E-01    3.12       1.0  T
   8    -13.5578606 -0.609381E-04  0.109E-01    3.15       1.0  T
   9    -13.5579001 -0.394481E-04  0.531E-02    3.15       1.0  T
  10    -13.5579044 -0.433739E-05  0.479E-02    3.15       1.0  T
  11    -13.5579076 -0.317885E-05  0.274E-02    3.15       1.6  T
  12    -13.5579086 -0.103262E-05  0.140E-02    3.16       3.2  T
  13    -13.5579091 -0.493711E-06  0.549E-03    3.16       8.2  T
  14    -13.5579091 -0.228425E-07  0.921E-04    3.16      48.5  T
  15    -13.5579091 -0.953991E-09  0.320E-04    3.16     139.7  T

   *** convergence criteria satisfied after 15 iterations ***

         #    Occupation            Energy/Eh            Energy/eV
      -------------------------------------------------------------
         1        2.0000           -1.1056838             -30.0872
       ...           ...                  ...                  ...
         5        1.9991           -0.5782537             -15.7351
         6        1.9950           -0.5450738             -14.8322
         7        1.9932           -0.5391469             -14.6709
         8        1.9228           -0.4916719             -13.3791
         9        1.8217           -0.4737882             -12.8924
        10        1.6196           -0.4548321             -12.3766
        11        1.5770           -0.4517289             -12.2922 (HOMO)
        12        0.0717           -0.3356477              -9.1334 (LUMO)
        13                         -0.0504406              -1.3726
        14                         -0.0497370              -1.3534
        15                         -0.0493320              -1.3424
        16                         -0.0429634              -1.1691
       ...                                ...                  ...
        19                          0.2032383               5.5304
      -------------------------------------------------------------
                  HL-Gap            0.1160812 Eh            3.1587 eV
             Fermi-level           -0.4144137 Eh          -11.2768 eV

 SCC (total)                   0 d,  0 h,  0 min,  0.024 sec
 SCC setup                      ...        0 min,  0.000 sec (  0.745%)
 Dispersion                     ...        0 min,  0.000 sec (  0.229%)
 classical contributions        ...        0 min,  0.000 sec (  0.188%)
 integral evaluation            ...        0 min,  0.019 sec ( 79.159%)
 iterations                     ...        0 min,  0.004 sec ( 17.148%)
 molecular gradient             ...        0 min,  0.000 sec (  1.718%)
 printout                       ...        0 min,  0.000 sec (  0.584%)

         :::::::::::::::::::::::::::::::::::::::::::::::::::::
         ::                     SUMMARY                     ::
         :::::::::::::::::::::::::::::::::::::::::::::::::::::
         :: total energy             -13.530743950973 Eh    ::
         :: gradient norm              0.066664715026 Eh/a0 ::
         :: HOMO-LUMO gap              3.158729190323 eV    ::
         ::.................................................::
         :: SCC energy               -13.557909148727 Eh    ::
         :: -> isotropic ES            0.042756521425 Eh    ::
         :: -> anisotropic ES         -0.003565534565 Eh    ::
         :: -> anisotropic XC         -0.001737227870 Eh    ::
         :: -> dispersion             -0.001297324116 Eh    ::
         :: repulsion energy           0.027165221521 Eh    ::
         :: add. restraining           0.000000000000 Eh    ::
         :: total charge               0.000000000003 e     ::
         :::::::::::::::::::::::::::::::::::::::::::::::::::::

      ----------------------------------------------------------- 
     |                   =====================                   |
     |                        A N C O P T                        |
     |                   =====================                   |
     |               Approximate Normal Coordinate               |
     |                Rational Function Optimizer                |
      ----------------------------------------------------------- 

          ...................................................
          :                      SETUP                      :
          :.................................................:
          :   optimization level            normal          :
          :   max. optcycles                   200          :
          :   ANC micro-cycles                  20          :
          :   degrees of freedom                 9          :
          :.................................................:
          :   RF solver                   davidson          :
          :   write xtbopt.log                true          :
          :   linear?                        false          :
          :   energy convergence         0.5000000E-05 Eh   :
          :   grad. convergence          0.1000000E-02 Eh/α :
          :   maxmium RF displ.          1.0000000          :
          :   Hlow (freq-cutoff)         0.1000000E-01      :
          :   Hmax (freq-cutoff)         5.0000000          :
          :   S6 in model hess.         20.0000000          :
          ...................................................

generating ANC from model Hessian ...
Using Lindh-Hessian (1995)
 Shifting diagonal of input Hessian by   1.522214048200753E-002
 Lowest  eigenvalues of input Hessian
    0.010000    0.000000    0.000000    0.000000    0.000000    0.000000
    0.000000    0.015491    0.016048    0.017956    0.021439    0.115833
    0.802003    1.099672    1.290785
 Highest eigenvalues
    0.017956    0.021439    0.115833    0.802003    1.099672    1.290785
 

........................................................................
.............................. CYCLE    1 ..............................
........................................................................

 iter      E             dE          RMSdq      gap      omega  full diag
   1    -13.5579091 -0.135579E+02  0.785E-05    3.16       0.0  T
   2    -13.5579091 -0.488498E-11  0.535E-05    3.16     835.3  T
   3    -13.5579091 -0.710543E-13  0.367E-05    3.16    1217.3  T
     SCC iter.                  ...        0 min,  0.002 sec
     gradient                   ...        0 min,  0.000 sec
 * total energy  :   -13.5307440 Eh     change       -0.2789715E-09 Eh
   gradient norm :     0.0666629 Eh/α   predicted     0.0000000E+00 (-100.00%)
   displ. norm   :     0.4173954 α      lambda       -0.9680662E-02
   maximum displ.:     0.2874526 α      in ANC's #5, #1, #4, ...

........................................................................
.............................. CYCLE    2 ..............................
........................................................................

 iter      E             dE          RMSdq      gap      omega  full diag
   1    -13.5605266 -0.135605E+02  0.655E-01    3.70       0.0  T
   2    -13.5583456  0.218106E-02  0.898E-01    3.21       1.0  T
   3    -13.5619970 -0.365146E-02  0.339E-01    3.49       1.0  T
   4    -13.5620287 -0.316617E-04  0.626E-02    3.53       1.0  T
   5    -13.5620395 -0.107903E-04  0.371E-02    3.51       1.2  T
   6    -13.5620416 -0.216739E-05  0.232E-02    3.50       1.9  T
   7    -13.5620431 -0.142473E-05  0.158E-02    3.51       2.8  T
   8    -13.5620440 -0.963435E-06  0.802E-03    3.50       5.6  T
   9    -13.5620442 -0.208530E-06  0.281E-03    3.50      15.9  T
  10    -13.5620443 -0.214339E-07  0.171E-03    3.50      26.2  T
  11    -13.5620443 -0.540413E-08  0.537E-04    3.50      83.2  T
  12    -13.5620443 -0.295273E-09  0.153E-04    3.50     292.9  T
     SCC iter.                  ...        0 min,  0.001 sec
     gradient                   ...        0 min,  0.000 sec
 * total energy  :   -13.5382710 Eh     change       -0.7527075E-02 Eh
   gradient norm :     0.0588102 Eh/α   predicted    -0.5683608E-02 ( -24.49%)
   displ. norm   :     0.4779893 α      lambda       -0.9783822E-02
   maximum displ.:     0.3187040 α      in ANC's #5, #1, #4, ...

........................................................................
.............................. CYCLE    3 ..............................
........................................................................

 iter      E             dE          RMSdq      gap      omega  full diag
   1    -13.5641278 -0.135641E+02  0.115E+00    4.63       0.0  T
   2    -13.5582809  0.584688E-02  0.161E+00    3.61       1.0  T
   3    -13.5709893 -0.127083E-01  0.485E-01    4.19       1.0  T
   4    -13.5710095 -0.202414E-04  0.203E-01    4.32       1.0  T
   5    -13.5712311 -0.221645E-03  0.652E-02    4.25       1.0  T
   6    -13.5712290  0.214069E-05  0.551E-02    4.26       1.0  T
   7    -13.5712394 -0.104329E-04  0.353E-02    4.22       1.3  T
   8    -13.5712448 -0.539435E-05  0.980E-03    4.23       4.6  T
   9    -13.5712449 -0.117752E-06  0.879E-03    4.23       5.1  T
  10    -13.5712453 -0.306485E-06  0.273E-03    4.23      16.4  T
  11    -13.5712453 -0.200054E-07  0.371E-04    4.23     120.7  T
  12    -13.5712453 -0.487788E-10  0.203E-04    4.23     220.7  T
     SCC iter.                  ...        0 min,  0.001 sec
     gradient                   ...        0 min,  0.000 sec
 * total energy  :   -13.5456311 Eh     change       -0.7360118E-02 Eh
   gradient norm :     0.0506496 Eh/α   predicted    -0.6009586E-02 ( -18.35%)
   displ. norm   :     0.7341903 α      lambda       -0.1054511E-01
   maximum displ.:     0.4402841 α      in ANC's #5, #1, #4, ...

........................................................................
.............................. CYCLE    4 ..............................
........................................................................

 iter      E             dE          RMSdq      gap      omega  full diag
   1    -13.5650682 -0.135651E+02  0.156E+00    5.01       0.0  T
   2    -13.5593142  0.575396E-02  0.161E+00    4.33       1.0  T
   3    -13.5714622 -0.121480E-01  0.598E-01    4.87       1.0  T
   4    -13.5717903 -0.328073E-03  0.969E-02    4.82       1.0  T
   5    -13.5717963 -0.601032E-05  0.737E-02    4.82       1.0  T
   6    -13.5718035 -0.721713E-05  0.332E-02    4.82       1.3  T
   7    -13.5718052 -0.168422E-05  0.147E-02    4.82       3.0  T
   8    -13.5718054 -0.243906E-06  0.326E-03    4.82      13.7  T
   9    -13.5718054 -0.170672E-07  0.197E-03    4.82      22.7  T
  10    -13.5718055 -0.965815E-08  0.139E-03    4.82      32.2  T
  11    -13.5718055 -0.825851E-08  0.616E-04    4.82      72.6  T
  12    -13.5718055 -0.107513E-08  0.108E-04    4.82     413.0  T
     SCC iter.                  ...        0 min,  0.001 sec
     gradient                   ...        0 min,  0.000 sec
 * total energy  :   -13.5537557 Eh     change       -0.8124594E-02 Eh
   gradient norm :     0.0517086 Eh/α   predicted    -0.8114662E-02 (  -0.12%)
   displ. norm   :     0.7600603 α      lambda       -0.1493212E-01
   maximum displ.:     0.5251369 α      in ANC's #5, #2, #3, ...

........................................................................
.............................. CYCLE    5 ..............................
........................................................................

 iter      E             dE          RMSdq      gap      omega  full diag
   1    -13.5807813 -0.135808E+02  0.167E+00    4.94       0.0  T
   2    -13.5812896 -0.508315E-03  0.875E-01    4.80       1.0  T
   3    -13.5813567 -0.671049E-04  0.815E-01    4.94       1.0  T
   4    -13.5827123 -0.135554E-02  0.102E-01    4.87       1.0  T
   5    -13.5827159 -0.368860E-05  0.502E-02    4.86       1.0  T
   6    -13.5827202 -0.430780E-05  0.324E-02    4.86       1.4  T
   7    -13.5827217 -0.148791E-05  0.189E-02    4.86       2.4  T
   8    -13.5827227 -0.987175E-06  0.118E-02    4.86       3.8  T
   9    -13.5827232 -0.461192E-06  0.423E-03    4.86      10.6  T
  10    -13.5827232 -0.444797E-07  0.255E-03    4.86      17.5  T
  11    -13.5827232 -0.138896E-07  0.141E-03    4.86      31.7  T
  12    -13.5827232 -0.586136E-08  0.228E-04    4.85     195.8  T
  13    -13.5827232 -0.680007E-10  0.333E-05    4.85    1343.0  T
     SCC iter.                  ...        0 min,  0.002 sec
     gradient                   ...        0 min,  0.000 sec
 * total energy  :   -13.5587117 Eh     change       -0.4955962E-02 Eh
   gradient norm :     0.0807876 Eh/α   predicted    -0.1177913E-01 ( 137.68%)
   displ. norm   :     0.4807728 α      lambda       -0.2567326E-01
   maximum displ.:     0.3883630 α      in ANC's #5, #6, #4, ...

........................................................................
.............................. CYCLE    6 ..............................
........................................................................

 iter      E             dE          RMSdq      gap      omega  full diag
   1    -13.5990846 -0.135991E+02  0.990E-01    4.84       0.0  T
   2    -13.5994623 -0.377718E-03  0.621E-01    4.79       1.0  T
   3    -13.5993242  0.138116E-03  0.363E-01    4.86       1.0  T
   4    -13.5995438 -0.219573E-03  0.176E-01    4.81       1.0  T
   5    -13.5996612 -0.117363E-03  0.972E-02    4.83       1.0  T
   6    -13.5996793 -0.181023E-04  0.544E-02    4.84       1.0  T
   7    -13.5996892 -0.996226E-05  0.271E-02    4.86       1.7  T
   8    -13.5996918 -0.258368E-05  0.115E-02    4.86       3.9  T
   9    -13.5996922 -0.417376E-06  0.210E-03    4.86      21.3  T
  10    -13.5996922 -0.474878E-08  0.897E-04    4.86      49.9  T
  11    -13.5996922 -0.857330E-09  0.515E-04    4.86      86.9  T
     SCC iter.                  ...        0 min,  0.001 sec
     gradient                   ...        0 min,  0.000 sec
 * total energy  :   -13.5434822 Eh     change        0.1522946E-01 Eh
   gradient norm :     0.2661113 Eh/α   predicted    -0.1580371E-01 (-203.77%)
   displ. norm   :     0.3980043 α      lambda       -0.5384765E-01
   maximum displ.:     0.2457012 α      in ANC's #3, #4, #2, ...

........................................................................
.............................. CYCLE    7 ..............................
........................................................................

 iter      E             dE          RMSdq      gap      omega  full diag
   1    -13.5741855 -0.135742E+02  0.122E+00    4.53       0.0  T
   2    -13.5722435  0.194195E-02  0.105E+00    4.74       1.0  T
   3    -13.5774018 -0.515829E-02  0.487E-01    4.61       1.0  T
   4    -13.5777436 -0.341751E-03  0.820E-02    4.64       1.0  T
   5    -13.5777475 -0.394619E-05  0.472E-02    4.65       1.0  T
   6    -13.5777526 -0.506607E-05  0.299E-02    4.65       1.5  T
   7    -13.5777546 -0.196509E-05  0.193E-02    4.65       2.3  T
   8    -13.5777556 -0.109254E-05  0.150E-02    4.66       3.0  T
   9    -13.5777565 -0.844856E-06  0.321E-03    4.66      13.9  T
  10    -13.5777565 -0.349297E-07  0.140E-03    4.66      32.0  T
  11    -13.5777565 -0.526856E-08  0.537E-04    4.66      83.2  T
  12    -13.5777565 -0.806883E-09  0.107E-04    4.66     416.2  T
     SCC iter.                  ...        0 min,  0.001 sec
     gradient                   ...        0 min,  0.000 sec
 * total energy  :   -13.5614782 Eh     change       -0.1799591E-01 Eh
   gradient norm :     0.0601894 Eh/α   predicted    -0.3118875E-01 (  73.31%)
   displ. norm   :     0.5972224 α      lambda       -0.2175720E-01
   maximum displ.:     0.3976061 α      in ANC's #1, #5, #2, ...

........................................................................
.............................. CYCLE    8 ..............................
........................................................................

 iter      E             dE          RMSdq      gap      omega  full diag
   1    -13.5970259 -0.135970E+02  0.168E+00    5.30       0.0  T
   2    -13.5982312 -0.120529E-02  0.949E-01    5.20       1.0  T
   3    -13.5986794 -0.448223E-03  0.727E-01    5.27       1.0  T
   4    -13.5994944 -0.815007E-03  0.151E-01    5.22       1.0  T
   5    -13.5995160 -0.216429E-04  0.110E-01    5.22       1.0  T
   6    -13.5995414 -0.253486E-04  0.655E-02    5.21       1.0  T
   7    -13.5995552 -0.137533E-04  0.332E-02    5.19       1.3  T
   8    -13.5995592 -0.408230E-05  0.118E-02    5.19       3.8  T
   9    -13.5995596 -0.364475E-06  0.354E-03    5.18      12.6  T
  10    -13.5995596 -0.133060E-07  0.179E-03    5.18      25.0  T
  11    -13.5995596 -0.730579E-08  0.878E-04    5.18      51.0  T
  12    -13.5995596 -0.175485E-08  0.154E-04    5.18     290.0  T
     SCC iter.                  ...        0 min,  0.001 sec
     gradient                   ...        0 min,  0.000 sec
 * total energy  :   -13.5601341 Eh     change        0.1344003E-02 Eh
   gradient norm :     0.1098997 Eh/α   predicted    -0.1475873E-01 (*******%)
   displ. norm   :     0.3664805 α      lambda       -0.3263677E-01
   maximum displ.:     0.2651668 α      in ANC's #5, #1, #3, ...

........................................................................
.............................. CYCLE    9 ..............................
........................................................................

 iter      E             dE          RMSdq      gap      omega  full diag
   1    -13.5906209 -0.135906E+02  0.892E-01    5.14       0.0  T
   2    -13.5907460 -0.125077E-03  0.489E-01    5.16       1.0  T
   3    -13.5904732  0.272788E-03  0.508E-01    5.11       1.0  T
   4    -13.5911318 -0.658553E-03  0.108E-01    5.16       1.0  T
   5    -13.5911550 -0.232210E-04  0.624E-02    5.15       1.0  T
   6    -13.5911595 -0.450787E-05  0.321E-02    5.15       1.4  T
   7    -13.5911617 -0.216785E-05  0.204E-02    5.16       2.2  T
   8    -13.5911630 -0.129331E-05  0.915E-03    5.16       4.9  T
   9    -13.5911633 -0.322087E-06  0.346E-03    5.16      12.9  T
  10    -13.5911633 -0.265479E-07  0.164E-03    5.17      27.3  T
  11    -13.5911633 -0.371206E-08  0.741E-04    5.17      60.4  T
  12    -13.5911633 -0.184670E-08  0.175E-04    5.17     256.1  T
     SCC iter.                  ...        0 min,  0.001 sec
     gradient                   ...        0 min,  0.000 sec
 * total energy  :   -13.5690924 Eh     change       -0.8958211E-02 Eh
   gradient norm :     0.0488876 Eh/α   predicted    -0.1851007E-01 ( 106.63%)
   displ. norm   :     0.5019178 α      lambda       -0.1006770E-01
   maximum displ.:     0.3661464 α      in ANC's #2, #6, #4, ...

........................................................................
.............................. CYCLE   10 ..............................
........................................................................

 iter      E             dE          RMSdq      gap      omega  full diag
   1    -13.5920345 -0.135920E+02  0.854E-01    4.90       0.0  T
   2    -13.5920808 -0.463911E-04  0.581E-01    4.91       1.0  T
   3    -13.5914703  0.610562E-03  0.368E-01    4.90       1.0  T
   4    -13.5921967 -0.726394E-03  0.907E-02    4.92       1.0  T
   5    -13.5922066 -0.996774E-05  0.706E-02    4.92       1.0  T
   6    -13.5922194 -0.127498E-04  0.419E-02    4.93       1.1  T
   7    -13.5922253 -0.593925E-05  0.212E-02    4.95       2.1  T
   8    -13.5922268 -0.150599E-05  0.921E-03    4.95       4.9  T
   9    -13.5922270 -0.158724E-06  0.358E-03    4.95      12.5  T
  10    -13.5922270 -0.110650E-07  0.171E-03    4.95      26.1  T
  11    -13.5922270 -0.134565E-07  0.398E-04    4.95     112.4  T
  12    -13.5922270 -0.237495E-09  0.637E-05    4.95     702.5  T
     SCC iter.                  ...        0 min,  0.001 sec
     gradient                   ...        0 min,  0.000 sec
 * total energy  :   -13.5711855 Eh     change       -0.2093130E-02 Eh
   gradient norm :     0.0579306 Eh/α   predicted    -0.6301973E-02 ( 201.08%)
   displ. norm   :     0.3672522 α      lambda       -0.9746650E-02
   maximum displ.:     0.2937096 α      in ANC's #3, #1, #6, ...

........................................................................
.............................. CYCLE   11 ..............................
........................................................................

 iter      E             dE          RMSdq      gap      omega  full diag
   1    -13.6058078 -0.136058E+02  0.634E-01    5.24       0.0  T
   2    -13.6058884 -0.805868E-04  0.388E-01    5.21       1.0  T
   3    -13.6059196 -0.312120E-04  0.286E-01    5.23       1.0  T
   4    -13.6060910 -0.171350E-03  0.465E-02    5.22       1.0  T
   5    -13.6060946 -0.367346E-05  0.316E-02    5.21       1.4  T
   6    -13.6060965 -0.184217E-05  0.182E-02    5.21       2.5  T
   7    -13.6060976 -0.115819E-05  0.838E-03    5.20       5.3  T
   8    -13.6060979 -0.270996E-06  0.376E-03    5.20      11.9  T
   9    -13.6060979 -0.320663E-07  0.947E-04    5.20      47.2  T
  10    -13.6060979 -0.928191E-09  0.428E-04    5.20     104.5  T
     SCC iter.                  ...        0 min,  0.001 sec
     gradient                   ...        0 min,  0.000 sec
 * total energy  :   -13.5771546 Eh     change       -0.5969134E-02 Eh
   gradient norm :     0.0429392 Eh/α   predicted    -0.5530611E-02 (  -7.35%)
   displ. norm   :     0.2540365 α      lambda       -0.3912860E-02
   maximum displ.:     0.2076285 α      in ANC's #2, #3, #6, ...

........................................................................
.............................. CYCLE   12 ..............................
........................................................................

 iter      E             dE          RMSdq      gap      omega  full diag
   1    -13.6121580 -0.136122E+02  0.537E-01    5.49       0.0  T
   2    -13.6122810 -0.123009E-03  0.391E-01    5.46       1.0  T
   3    -13.6125158 -0.234814E-03  0.234E-01    5.47       1.0  T
   4    -13.6125728 -0.570541E-04  0.623E-02    5.46       1.0  T
   5    -13.6125788 -0.595343E-05  0.452E-02    5.46       1.0  T
   6    -13.6125845 -0.569026E-05  0.213E-02    5.45       2.1  T
   7    -13.6125854 -0.904264E-06  0.156E-02    5.44       2.9  T
   8    -13.6125864 -0.105711E-05  0.340E-03    5.44      13.1  T
   9    -13.6125865 -0.156458E-07  0.174E-03    5.44      25.8  T
  10    -13.6125865 -0.470391E-08  0.496E-04    5.44      90.1  T
  11    -13.6125865 -0.497581E-09  0.165E-04    5.44     270.4  T
     SCC iter.                  ...        0 min,  0.001 sec
     gradient                   ...        0 min,  0.000 sec
 * total energy  :   -13.5784650 Eh     change       -0.1310365E-02 Eh
   gradient norm :     0.0244168 Eh/α   predicted    -0.2082688E-02 (  58.94%)
   displ. norm   :     0.3997838 α      lambda       -0.3295380E-02
   maximum displ.:     0.3094575 α      in ANC's #3, #6, #5, ...

........................................................................
.............................. CYCLE   13 ..............................
........................................................................

 iter      E             dE          RMSdq      gap      omega  full diag
   1    -13.6089195 -0.136089E+02  0.591E-01    5.40       0.0  T
   2    -13.6089835 -0.639928E-04  0.383E-01    5.40       1.0  T
   3    -13.6089734  0.101049E-04  0.270E-01    5.40       1.0  T
   4    -13.6091437 -0.170352E-03  0.504E-02    5.41       1.0  T
   5    -13.6091475 -0.378057E-05  0.358E-02    5.40       1.2  T
   6    -13.6091498 -0.231807E-05  0.194E-02    5.41       2.3  T
   7    -13.6091506 -0.782878E-06  0.986E-03    5.41       4.5  T
   8    -13.6091509 -0.288210E-06  0.446E-03    5.41      10.0  T
   9    -13.6091510 -0.518786E-07  0.273E-03    5.41      16.4  T
  10    -13.6091510 -0.234720E-07  0.538E-04    5.41      83.2  T
  11    -13.6091510 -0.539355E-09  0.174E-04    5.41     257.4  T
     SCC iter.                  ...        0 min,  0.001 sec
     gradient                   ...        0 min,  0.000 sec
 * total energy  :   -13.5804163 Eh     change       -0.1951303E-02 Eh
   gradient norm :     0.0267506 Eh/α   predicted    -0.1911033E-02 (  -2.06%)
   displ. norm   :     0.3172832 α      lambda       -0.2586959E-02
   maximum displ.:     0.2345688 α      in ANC's #6, #3, #4, ...

........................................................................
.............................. CYCLE   14 ..............................
........................................................................

 iter      E             dE          RMSdq      gap      omega  full diag
   1    -13.6171953 -0.136172E+02  0.451E-01    5.39       0.0  T
   2    -13.6172251 -0.297978E-04  0.237E-01    5.39       1.0  T
   3    -13.6171804  0.446850E-04  0.209E-01    5.39       1.0  T
   4    -13.6172829 -0.102549E-03  0.296E-02    5.39       1.5  T
   5    -13.6172835 -0.598366E-06  0.206E-02    5.39       2.2  T
   6    -13.6172842 -0.694714E-06  0.111E-02    5.39       4.0  T
   7    -13.6172844 -0.118841E-06  0.539E-03    5.39       8.3  T
   8    -13.6172845 -0.944319E-07  0.229E-03    5.39      19.5  T
   9    -13.6172845 -0.890578E-08  0.118E-03    5.39      38.1  T
  10    -13.6172845 -0.477037E-08  0.448E-04    5.39      99.8  T
  11    -13.6172845 -0.679622E-09  0.181E-04    5.39     247.6  T
     SCC iter.                  ...        0 min,  0.001 sec
     gradient                   ...        0 min,  0.000 sec
 * total energy  :   -13.5809388 Eh     change       -0.5224757E-03 Eh
   gradient norm :     0.0417750 Eh/α   predicted    -0.1423690E-02 ( 172.49%)
   displ. norm   :     0.1417702 α      lambda       -0.1911944E-02
   maximum displ.:     0.0722132 α      in ANC's #3, #1, #2, ...

........................................................................
.............................. CYCLE   15 ..............................
........................................................................

 iter      E             dE          RMSdq      gap      omega  full diag
   1    -13.6150131 -0.136150E+02  0.225E-01    5.42       0.0  T
   2    -13.6150224 -0.930730E-05  0.132E-01    5.41       1.0  T
   3    -13.6150147  0.766160E-05  0.756E-02    5.42       1.0  T
   4    -13.6150275 -0.127908E-04  0.192E-02    5.41       2.3  T
   5    -13.6150284 -0.931157E-06  0.119E-02    5.41       3.7  T
   6    -13.6150286 -0.163655E-06  0.480E-03    5.41       9.3  T
   7    -13.6150286 -0.337558E-07  0.165E-03    5.41      27.0  T
   8    -13.6150286 -0.428455E-08  0.751E-04    5.41      59.5  T
   9    -13.6150286 -0.816964E-09  0.366E-04    5.41     122.1  T
     SCC iter.                  ...        0 min,  0.001 sec
     gradient                   ...        0 min,  0.000 sec
 * total energy  :   -13.5820112 Eh     change       -0.1072433E-02 Eh
   gradient norm :     0.0103259 Eh/α   predicted    -0.9751839E-03 (  -9.07%)
   displ. norm   :     0.1821241 α      lambda       -0.3853036E-03
   maximum displ.:     0.1307330 α      in ANC's #3, #6, #5, ...

........................................................................
.............................. CYCLE   16 ..............................
........................................................................

 iter      E             dE          RMSdq      gap      omega  full diag
   1    -13.6148310 -0.136148E+02  0.246E-01    5.40       0.0  T
   2    -13.6148345 -0.351771E-05  0.153E-01    5.40       1.0  T
   3    -13.6148239  0.106540E-04  0.572E-02    5.40       1.0  T
   4    -13.6148377 -0.137860E-04  0.169E-02    5.40       2.6  T
   5    -13.6148380 -0.336834E-06  0.130E-02    5.40       3.5  T
   6    -13.6148383 -0.300090E-06  0.527E-03    5.40       8.5  T
   7    -13.6148383 -0.375762E-07  0.160E-03    5.40      27.9  T
   8    -13.6148383 -0.410406E-08  0.964E-04    5.40      46.4  T
   9    -13.6148383 -0.200956E-08  0.622E-04    5.40      71.9  T
     SCC iter.                  ...        0 min,  0.001 sec
     gradient                   ...        0 min,  0.000 sec
 * total energy  :   -13.5822611 Eh     change       -0.2498777E-03 Eh
   gradient norm :     0.0127403 Eh/α   predicted    -0.1990447E-03 ( -20.34%)
   displ. norm   :     0.1589979 α      lambda       -0.4422596E-03
   maximum displ.:     0.0978135 α      in ANC's #3, #6, #8, ...

........................................................................
.............................. CYCLE   17 ..............................
........................................................................

 iter      E             dE          RMSdq      gap      omega  full diag
   1    -13.6170244 -0.136170E+02  0.255E-01    5.49       0.0  T
   2    -13.6170522 -0.277888E-04  0.170E-01    5.48       1.0  T
   3    -13.6170919 -0.396941E-04  0.111E-01    5.48       1.0  T
   4    -13.6171084 -0.165832E-04  0.232E-02    5.48       1.9  T
   5    -13.6171091 -0.636863E-06  0.183E-02    5.48       2.4  T
   6    -13.6171099 -0.864107E-06  0.740E-03    5.48       6.0  T
   7    -13.6171101 -0.141854E-06  0.398E-03    5.48      11.2  T
   8    -13.6171101 -0.511797E-07  0.222E-03    5.48      20.1  T
   9    -13.6171102 -0.132160E-07  0.105E-03    5.48      42.4  T
  10    -13.6171102 -0.217053E-08  0.935E-05    5.48     478.4  T
  11    -13.6171102 -0.101625E-10  0.401E-05    5.48    1114.4  T
     SCC iter.                  ...        0 min,  0.001 sec
     gradient                   ...        0 min,  0.000 sec
 * total energy  :   -13.5825021 Eh     change       -0.2410199E-03 Eh
   gradient norm :     0.0074231 Eh/α   predicted    -0.2267193E-03 (  -5.93%)
   displ. norm   :     0.1541313 α      lambda       -0.1894152E-03
   maximum displ.:     0.1097505 α      in ANC's #3, #6, #8, ...

........................................................................
.............................. CYCLE   18 ..............................
........................................................................

 iter      E             dE          RMSdq      gap      omega  full diag
   1    -13.6163022 -0.136163E+02  0.213E-01    5.49       0.0  T
   2    -13.6163042 -0.198885E-05  0.132E-01    5.49       1.0  T
   3    -13.6162959  0.824474E-05  0.474E-02    5.49       1.0  T
   4    -13.6163066 -0.106582E-04  0.135E-02    5.49       3.3  T
   5    -13.6163068 -0.156304E-06  0.892E-03    5.49       5.0  T
   6    -13.6163069 -0.133636E-06  0.437E-03    5.49      10.2  T
   7    -13.6163069 -0.267113E-07  0.110E-03    5.48      40.6  T
   8    -13.6163069 -0.135820E-08  0.616E-04    5.48      72.6  T
   9    -13.6163069 -0.606315E-09  0.383E-04    5.48     116.6  T
     SCC iter.                  ...        0 min,  0.001 sec
     gradient                   ...        0 min,  0.000 sec
 * total energy  :   -13.5825827 Eh     change       -0.8057514E-04 Eh
   gradient norm :     0.0063013 Eh/α   predicted    -0.9695747E-04 (  20.33%)
   displ. norm   :     0.0279414 α      lambda       -0.4621133E-04
   maximum displ.:     0.0174542 α      in ANC's #3, #6, #2, ...

........................................................................
.............................. CYCLE   19 ..............................
........................................................................

 iter      E             dE          RMSdq      gap      omega  full diag
   1    -13.6174525 -0.136175E+02  0.480E-02    5.49       0.0  T
   2    -13.6174531 -0.579865E-06  0.263E-02    5.49       1.7  T
   3    -13.6174533 -0.140487E-06  0.217E-02    5.49       2.1  T
   4    -13.6174542 -0.981707E-06  0.229E-03    5.49      19.5  T
   5    -13.6174542 -0.392772E-08  0.169E-03    5.49      26.5  T
   6    -13.6174543 -0.474484E-08  0.884E-04    5.49      50.6  T
   7    -13.6174543 -0.143109E-08  0.301E-04    5.49     148.4  T
     SCC iter.                  ...        0 min,  0.001 sec
     gradient                   ...        0 min,  0.000 sec
 * total energy  :   -13.5826049 Eh     change       -0.2222660E-04 Eh
   gradient norm :     0.0021307 Eh/α   predicted    -0.2312526E-04 (   4.04%)
   displ. norm   :     0.0181139 α      lambda       -0.1083715E-04
   maximum displ.:     0.0107119 α      in ANC's #3, #2, #1, ...

........................................................................
.............................. CYCLE   20 ..............................
........................................................................

 iter      E             dE          RMSdq      gap      omega  full diag
   1    -13.6175079 -0.136175E+02  0.320E-02    5.50       0.0  T
   2    -13.6175081 -0.197143E-06  0.206E-02    5.49       2.2  T
   3    -13.6175079  0.174490E-06  0.133E-02    5.49       3.4  T
   4    -13.6175084 -0.486565E-06  0.285E-03    5.49      15.7  T
   5    -13.6175084 -0.873325E-08  0.230E-03    5.49      19.5  T
   6    -13.6175084 -0.140548E-07  0.831E-04    5.49      53.8  T
   7    -13.6175084 -0.194371E-08  0.340E-04    5.49     131.7  T
     SCC iter.                  ...        0 min,  0.001 sec
     gradient                   ...        0 min,  0.000 sec
 * total energy  :   -13.5826133 Eh     change       -0.8374786E-05 Eh
   gradient norm :     0.0013882 Eh/α   predicted    -0.5420998E-05 ( -35.27%)
   displ. norm   :     0.1004439 α      lambda       -0.1985388E-04
   maximum displ.:     0.0726505 α      in ANC's #3, #2, #6, ...
 * RMSD in coord.:     1.1213064 α      energy gain  -0.5186932E-01 Eh

generating ANC from model Hessian ...
Using Lindh-Hessian (1995)
 Shifting diagonal of input Hessian by   9.842035480459189E-003
 Lowest  eigenvalues of input Hessian
    0.000000    0.000000    0.000000    0.000000    0.000000    0.000000
    0.010000    0.010269    0.012974    0.019378    0.038918    0.302312
    1.192489    1.416142    1.779458
 Highest eigenvalues
    0.019378    0.038918    0.302312    1.192489    1.416142    1.779458
 

........................................................................
.............................. CYCLE   21 ..............................
........................................................................

 iter      E             dE          RMSdq      gap      omega  full diag
   1    -13.6174505 -0.136175E+02  0.163E-01    5.49       0.0  T
   2    -13.6174513 -0.731221E-06  0.999E-02    5.49       1.0  T
   3    -13.6174516 -0.317220E-06  0.143E-02    5.49       3.1  T
   4    -13.6174520 -0.389238E-06  0.917E-03    5.49       4.9  T
   5    -13.6174521 -0.137238E-06  0.302E-03    5.49      14.8  T
   6    -13.6174521 -0.359407E-08  0.199E-03    5.49      22.5  T
   7    -13.6174521 -0.872111E-08  0.487E-04    5.49      91.8  T
   8    -13.6174521 -0.186482E-09  0.249E-04    5.49     179.7  T
     SCC iter.                  ...        0 min,  0.001 sec
     gradient                   ...        0 min,  0.000 sec
 * total energy  :   -13.5826284 Eh     change       -0.1516405E-04 Eh
   gradient norm :     0.0018879 Eh/α   predicted     0.0000000E+00 (-100.00%)
   displ. norm   :     0.1237186 α      lambda       -0.9147939E-04
   maximum displ.:     0.0845549 α      in ANC's #2, #1, #4, ...

........................................................................
.............................. CYCLE   22 ..............................
........................................................................

 iter      E             dE          RMSdq      gap      omega  full diag
   1    -13.6176383 -0.136176E+02  0.187E-01    5.49       0.0  T
   2    -13.6176393 -0.983926E-06  0.116E-01    5.49       1.0  T
   3    -13.6176342  0.504738E-05  0.355E-02    5.49       1.3  T
   4    -13.6176407 -0.641831E-05  0.104E-02    5.49       4.3  T
   5    -13.6176408 -0.187632E-06  0.340E-03    5.49      13.2  T
   6    -13.6176409 -0.932156E-08  0.152E-03    5.49      29.4  T
   7    -13.6176409 -0.159587E-08  0.387E-04    5.49     115.7  T
   8    -13.6176409 -0.136021E-09  0.260E-04    5.49     172.1  T
     SCC iter.                  ...        0 min,  0.001 sec
     gradient                   ...        0 min,  0.000 sec
 * total energy  :   -13.5827503 Eh     change       -0.1218191E-03 Eh
   gradient norm :     0.0018015 Eh/α   predicted    -0.4604986E-04 ( -62.20%)
   displ. norm   :     0.8193603 α      lambda       -0.5193308E-03
   maximum displ.:     0.6127865 α      in ANC's #1, #2, #4, ...

........................................................................
.............................. CYCLE   23 ..............................
........................................................................

 iter      E             dE          RMSdq      gap      omega  full diag
   1    -13.5987629 -0.135988E+02  0.146E+00    5.05       0.0  T
   2    -13.5992286 -0.465715E-03  0.946E-01    5.07       1.0  T
   3    -13.6000215 -0.792859E-03  0.660E-01    5.07       1.0  T
   4    -13.6008317 -0.810242E-03  0.116E-01    5.07       1.0  T
   5    -13.6008553 -0.235902E-04  0.846E-02    5.08       1.0  T
   6    -13.6008736 -0.183524E-04  0.336E-02    5.10       1.3  T
   7    -13.6008763 -0.270905E-05  0.208E-02    5.10       2.1  T
   8    -13.6008777 -0.133047E-05  0.107E-02    5.11       4.2  T
   9    -13.6008780 -0.326112E-06  0.461E-03    5.11       9.7  T
  10    -13.6008781 -0.473458E-07  0.128E-03    5.11      34.9  T
  11    -13.6008781 -0.689083E-08  0.392E-04    5.11     114.1  T
  12    -13.6008781 -0.375140E-09  0.262E-05    5.11    1707.0  T
     SCC iter.                  ...        0 min,  0.001 sec
     gradient                   ...        0 min,  0.000 sec
 * total energy  :   -13.5770901 Eh     change        0.5660139E-02 Eh
   gradient norm :     0.0854182 Eh/α   predicted    -0.3371339E-03 (-105.96%)
   displ. norm   :     0.3652694 α      lambda       -0.1097119E-01
   maximum displ.:     0.3169014 α      in ANC's #1, #2, #4, ...

........................................................................
.............................. CYCLE   24 ..............................
........................................................................

 iter      E             dE          RMSdq      gap      omega  full diag
   1    -13.6139139 -0.136139E+02  0.740E-01    5.41       0.0  T
   2    -13.6141052 -0.191305E-03  0.501E-01    5.40       1.0  T
   3    -13.6143980 -0.292800E-03  0.321E-01    5.40       1.0  T
   4    -13.6145662 -0.168237E-03  0.604E-02    5.40       1.0  T
   5    -13.6145712 -0.501984E-05  0.466E-02    5.40       1.0  T
   6    -13.6145766 -0.534523E-05  0.232E-02    5.39       1.9  T
   7    -13.6145779 -0.133369E-05  0.155E-02    5.38       2.9  T
   8    -13.6145789 -0.102005E-05  0.361E-03    5.38      12.4  T
   9    -13.6145789 -0.231762E-07  0.194E-03    5.38      23.0  T
  10    -13.6145789 -0.597857E-08  0.569E-04    5.38      78.6  T
  11    -13.6145789 -0.699890E-09  0.175E-04    5.38     255.6  T
     SCC iter.                  ...        0 min,  0.001 sec
     gradient                   ...        0 min,  0.000 sec
 * total energy  :   -13.5827409 Eh     change       -0.5650829E-02 Eh
   gradient norm :     0.0218956 Eh/α   predicted    -0.6217494E-02 (  10.03%)
   displ. norm   :     0.1292938 α      lambda       -0.5542095E-03
   maximum displ.:     0.1219270 α      in ANC's #2, #4, #3, ...

........................................................................
.............................. CYCLE   25 ..............................
........................................................................

 iter      E             dE          RMSdq      gap      omega  full diag
   1    -13.6166094 -0.136166E+02  0.235E-01    5.47       0.0  T
   2    -13.6166300 -0.205687E-04  0.166E-01    5.46       1.0  T
   3    -13.6166553 -0.252776E-04  0.101E-01    5.46       1.0  T
   4    -13.6166707 -0.153640E-04  0.235E-02    5.46       1.9  T
   5    -13.6166713 -0.668969E-06  0.184E-02    5.46       2.4  T
   6    -13.6166722 -0.909342E-06  0.731E-03    5.46       6.1  T
   7    -13.6166724 -0.161452E-06  0.347E-03    5.46      12.9  T
   8    -13.6166724 -0.362100E-07  0.210E-03    5.46      21.3  T
   9    -13.6166724 -0.106611E-07  0.113E-03    5.46      39.7  T
  10    -13.6166724 -0.267673E-08  0.715E-05    5.46     625.9  T
  11    -13.6166724 -0.176037E-11  0.318E-05    5.46    1406.0  T
     SCC iter.                  ...        0 min,  0.001 sec
     gradient                   ...        0 min,  0.000 sec
 * total energy  :   -13.5830279 Eh     change       -0.2869333E-03 Eh
   gradient norm :     0.0116839 Eh/α   predicted    -0.2817352E-03 (  -1.81%)
   displ. norm   :     0.0269892 α      lambda       -0.1454530E-03
   maximum displ.:     0.0136371 α      in ANC's #4, #2, #5, ...

........................................................................
.............................. CYCLE   26 ..............................
........................................................................

 iter      E             dE          RMSdq      gap      omega  full diag
   1    -13.6178197 -0.136178E+02  0.610E-02    5.48       0.0  T
   2    -13.6178219 -0.225867E-05  0.393E-02    5.48       1.1  T
   3    -13.6178263 -0.433115E-05  0.245E-02    5.48       1.8  T
   4    -13.6178270 -0.739697E-06  0.479E-03    5.48       9.3  T
   5    -13.6178270 -0.241794E-07  0.308E-03    5.47      14.5  T
   6    -13.6178270 -0.173522E-07  0.204E-03    5.47      21.9  T
   7    -13.6178271 -0.120805E-07  0.103E-03    5.47      43.5  T
   8    -13.6178271 -0.318801E-08  0.509E-04    5.47      87.9  T
   9    -13.6178271 -0.594376E-09  0.241E-04    5.47     185.7  T
     SCC iter.                  ...        0 min,  0.001 sec
     gradient                   ...        0 min,  0.000 sec
 * total energy  :   -13.5831010 Eh     change       -0.7307118E-04 Eh
   gradient norm :     0.0031267 Eh/α   predicted    -0.7277930E-04 (  -0.40%)
   displ. norm   :     0.0172805 α      lambda       -0.2501474E-04
   maximum displ.:     0.0137339 α      in ANC's #1, #4, #6, ...

........................................................................
.............................. CYCLE   27 ..............................
........................................................................

 iter      E             dE          RMSdq      gap      omega  full diag
   1    -13.6176350 -0.136176E+02  0.258E-02    5.48       0.0  T
   2    -13.6176352 -0.168664E-06  0.182E-02    5.48       2.5  T
   3    -13.6176352 -0.860407E-07  0.110E-02    5.48       4.1  T
   4    -13.6176355 -0.263970E-06  0.181E-03    5.48      24.7  T
   5    -13.6176355 -0.365019E-08  0.125E-03    5.48      35.8  T
   6    -13.6176355 -0.311676E-08  0.856E-04    5.48      52.2  T
   7    -13.6176355 -0.278232E-08  0.306E-04    5.48     146.3  T
     SCC iter.                  ...        0 min,  0.001 sec
     gradient                   ...        0 min,  0.000 sec
 * total energy  :   -13.5831233 Eh     change       -0.2237422E-04 Eh
   gradient norm :     0.0020758 Eh/α   predicted    -0.1251211E-04 ( -44.08%)
   displ. norm   :     0.1073184 α      lambda       -0.1314097E-03
   maximum displ.:     0.0915607 α      in ANC's #1, #4, #3, ...

........................................................................
.............................. CYCLE   28 ..............................
........................................................................

 iter      E             dE          RMSdq      gap      omega  full diag
   1    -13.6166863 -0.136167E+02  0.178E-01    5.50       0.0  T
   2    -13.6166887 -0.242129E-05  0.112E-01    5.50       1.0  T
   3    -13.6166743  0.143947E-04  0.638E-02    5.50       1.0  T
   4    -13.6166928 -0.185210E-04  0.796E-03    5.50       5.6  T
   5    -13.6166929 -0.673831E-07  0.425E-03    5.50      10.5  T
   6    -13.6166929 -0.251376E-07  0.303E-03    5.50      14.8  T
   7    -13.6166929 -0.182809E-07  0.131E-03    5.50      34.1  T
   8    -13.6166929 -0.403324E-08  0.766E-04    5.50      58.4  T
   9    -13.6166929 -0.139475E-08  0.424E-04    5.50     105.5  T
     SCC iter.                  ...        0 min,  0.001 sec
     gradient                   ...        0 min,  0.000 sec
 * total energy  :   -13.5832066 Eh     change       -0.8331019E-04 Eh
   gradient norm :     0.0055695 Eh/α   predicted    -0.6646237E-04 ( -20.22%)
   displ. norm   :     0.0799102 α      lambda       -0.6410390E-04
   maximum displ.:     0.0599011 α      in ANC's #1, #3, #2, ...

........................................................................
.............................. CYCLE   29 ..............................
........................................................................

 iter      E             dE          RMSdq      gap      omega  full diag
   1    -13.6164741 -0.136165E+02  0.138E-01    5.50       0.0  T
   2    -13.6164746 -0.524264E-06  0.846E-02    5.50       1.0  T
   3    -13.6164734  0.123032E-05  0.194E-02    5.50       2.3  T
   4    -13.6164752 -0.180401E-05  0.637E-03    5.50       7.0  T
   5    -13.6164753 -0.516435E-07  0.311E-03    5.50      14.4  T
   6    -13.6164753 -0.124363E-07  0.201E-03    5.50      22.3  T
   7    -13.6164753 -0.460980E-08  0.414E-04    5.50     107.9  T
   8    -13.6164753 -0.210044E-09  0.204E-04    5.50     218.8  T
     SCC iter.                  ...        0 min,  0.001 sec
     gradient                   ...        0 min,  0.000 sec
 * total energy  :   -13.5832582 Eh     change       -0.5160581E-04 Eh
   gradient norm :     0.0066906 Eh/α   predicted    -0.3225757E-04 ( -37.49%)
   displ. norm   :     0.1673905 α      lambda       -0.1553731E-03
   maximum displ.:     0.1155002 α      in ANC's #1, #3, #2, ...

........................................................................
.............................. CYCLE   30 ..............................
........................................................................

 iter      E             dE          RMSdq      gap      omega  full diag
   1    -13.6164071 -0.136164E+02  0.285E-01    5.48       0.0  T
   2    -13.6164091 -0.205704E-05  0.175E-01    5.49       1.0  T
   3    -13.6164080  0.109576E-05  0.283E-02    5.49       1.6  T
   4    -13.6164113 -0.324559E-05  0.146E-02    5.49       3.1  T
   5    -13.6164115 -0.249793E-06  0.900E-03    5.49       5.0  T
   6    -13.6164117 -0.160018E-06  0.464E-03    5.49       9.6  T
   7    -13.6164117 -0.306898E-07  0.143E-03    5.49      31.3  T
   8    -13.6164117 -0.324097E-08  0.101E-03    5.49      44.1  T
   9    -13.6164117 -0.316822E-08  0.545E-04    5.49      82.0  T
  10    -13.6164117 -0.100086E-08  0.890E-05    5.49     502.2  T
     SCC iter.                  ...        0 min,  0.001 sec
     gradient                   ...        0 min,  0.000 sec
 * total energy  :   -13.5833567 Eh     change       -0.9846950E-04 Eh
   gradient norm :     0.0073345 Eh/α   predicted    -0.7986315E-04 ( -18.90%)
   displ. norm   :     0.0763963 α      lambda       -0.1263531E-03
   maximum displ.:     0.0459740 α      in ANC's #1, #5, #2, ...

........................................................................
.............................. CYCLE   31 ..............................
........................................................................

 iter      E             dE          RMSdq      gap      omega  full diag
   1    -13.6175882 -0.136176E+02  0.123E-01    5.50       0.0  T
   2    -13.6175892 -0.963803E-06  0.747E-02    5.50       1.0  T
   3    -13.6175835  0.573052E-05  0.418E-02    5.50       1.1  T
   4    -13.6175907 -0.727233E-05  0.604E-03    5.50       7.4  T
   5    -13.6175908 -0.269129E-07  0.452E-03    5.50       9.9  T
   6    -13.6175908 -0.330332E-07  0.214E-03    5.50      20.9  T
   7    -13.6175908 -0.624599E-08  0.593E-04    5.50      75.4  T
   8    -13.6175908 -0.465889E-09  0.364E-04    5.50     122.7  T
     SCC iter.                  ...        0 min,  0.001 sec
     gradient                   ...        0 min,  0.000 sec
 * total energy  :   -13.5834420 Eh     change       -0.8531395E-04 Eh
   gradient norm :     0.0017305 Eh/α   predicted    -0.6354484E-04 ( -25.52%)
   displ. norm   :     0.3462919 α      lambda       -0.1621789E-03
   maximum displ.:     0.2593542 α      in ANC's #1, #5, #2, ...

........................................................................
.............................. CYCLE   32 ..............................
........................................................................

 iter      E             dE          RMSdq      gap      omega  full diag
   1    -13.6138709 -0.136139E+02  0.513E-01    5.47       0.0  T
   2    -13.6138843 -0.133815E-04  0.308E-01    5.47       1.0  T
   3    -13.6137819  0.102334E-03  0.174E-01    5.47       1.0  T
   4    -13.6139073 -0.125424E-03  0.238E-02    5.47       1.9  T
   5    -13.6139079 -0.597380E-06  0.146E-02    5.47       3.1  T
   6    -13.6139083 -0.346780E-06  0.810E-03    5.47       5.5  T
   7    -13.6139084 -0.617395E-07  0.401E-03    5.47      11.2  T
   8    -13.6139084 -0.478648E-07  0.125E-03    5.47      35.9  T
   9    -13.6139084 -0.344123E-08  0.813E-04    5.47      55.0  T
  10    -13.6139084 -0.112178E-08  0.597E-04    5.47      74.9  T
     SCC iter.                  ...        0 min,  0.001 sec
     gradient                   ...        0 min,  0.000 sec
 * total energy  :   -13.5831967 Eh     change        0.2453005E-03 Eh
   gradient norm :     0.0248526 Eh/α   predicted    -0.8540884E-04 (-134.82%)
   displ. norm   :     0.1429667 α      lambda       -0.7676946E-03
   maximum displ.:     0.1059898 α      in ANC's #1, #3, #2, ...

........................................................................
.............................. CYCLE   33 ..............................
........................................................................

 iter      E             dE          RMSdq      gap      omega  full diag
   1    -13.6171069 -0.136171E+02  0.256E-01    5.52       0.0  T
   2    -13.6171179 -0.110514E-04  0.158E-01    5.52       1.0  T
   3    -13.6171070  0.109177E-04  0.111E-01    5.52       1.0  T
   4    -13.6171395 -0.325302E-04  0.160E-02    5.52       2.8  T
   5    -13.6171398 -0.230561E-06  0.122E-02    5.52       3.7  T
   6    -13.6171401 -0.320190E-06  0.654E-03    5.52       6.8  T
   7    -13.6171402 -0.111239E-06  0.268E-03    5.51      16.7  T
   8    -13.6171402 -0.204101E-07  0.176E-03    5.51      25.4  T
   9    -13.6171402 -0.771741E-08  0.998E-04    5.51      44.8  T
  10    -13.6171402 -0.264827E-08  0.127E-04    5.51     350.8  T
     SCC iter.                  ...        0 min,  0.001 sec
     gradient                   ...        0 min,  0.000 sec
 * total energy  :   -13.5835711 Eh     change       -0.3743672E-03 Eh
   gradient norm :     0.0057355 Eh/α   predicted    -0.3916925E-03 (   4.63%)
   displ. norm   :     0.0658249 α      lambda       -0.7663088E-04
   maximum displ.:     0.0536262 α      in ANC's #2, #3, #1, ...

........................................................................
.............................. CYCLE   34 ..............................
........................................................................

 iter      E             dE          RMSdq      gap      omega  full diag
   1    -13.6177184 -0.136177E+02  0.101E-01    5.49       0.0  T
   2    -13.6177191 -0.727543E-06  0.645E-02    5.49       1.0  T
   3    -13.6177151  0.400750E-05  0.322E-02    5.49       1.4  T
   4    -13.6177202 -0.501324E-05  0.740E-03    5.49       6.0  T
   5    -13.6177202 -0.509925E-07  0.576E-03    5.49       7.8  T
   6    -13.6177203 -0.687030E-07  0.298E-03    5.49      15.0  T
   7    -13.6177203 -0.251326E-07  0.108E-03    5.49      41.3  T
   8    -13.6177203 -0.232590E-08  0.734E-04    5.49      60.9  T
   9    -13.6177203 -0.139863E-08  0.469E-04    5.49      95.3  T
     SCC iter.                  ...        0 min,  0.001 sec
     gradient                   ...        0 min,  0.000 sec
 * total energy  :   -13.5836177 Eh     change       -0.4660084E-04 Eh
   gradient norm :     0.0022211 Eh/α   predicted    -0.3848350E-04 ( -17.42%)
   displ. norm   :     0.1183464 α      lambda       -0.9019634E-04
   maximum displ.:     0.0734247 α      in ANC's #3, #1, #2, ...

........................................................................
.............................. CYCLE   35 ..............................
........................................................................

 iter      E             dE          RMSdq      gap      omega  full diag
   1    -13.6179333 -0.136179E+02  0.151E-01    5.50       0.0  T
   2    -13.6179341 -0.745772E-06  0.930E-02    5.50       1.0  T
   3    -13.6179318  0.223881E-05  0.249E-02    5.50       1.8  T
   4    -13.6179348 -0.299823E-05  0.775E-03    5.50       5.8  T
   5    -13.6179349 -0.472698E-07  0.581E-03    5.50       7.7  T
   6    -13.6179349 -0.581345E-07  0.249E-03    5.50      18.0  T
   7    -13.6179349 -0.792522E-08  0.658E-04    5.50      67.9  T
   8    -13.6179349 -0.431736E-09  0.402E-04    5.50     111.4  T
     SCC iter.                  ...        0 min,  0.001 sec
     gradient                   ...        0 min,  0.000 sec
 * total energy  :   -13.5836881 Eh     change       -0.7038998E-04 Eh
   gradient norm :     0.0026637 Eh/α   predicted    -0.4573203E-04 ( -35.03%)
   displ. norm   :     0.3070596 α      lambda       -0.1669582E-03
   maximum displ.:     0.1827319 α      in ANC's #1, #2, #3, ...

........................................................................
.............................. CYCLE   36 ..............................
........................................................................

 iter      E             dE          RMSdq      gap      omega  full diag
   1    -13.6156275 -0.136156E+02  0.431E-01    5.44       0.0  T
   2    -13.6156391 -0.115570E-04  0.261E-01    5.44       1.0  T
   3    -13.6155533  0.858297E-04  0.169E-01    5.44       1.0  T
   4    -13.6156647 -0.111467E-03  0.233E-02    5.45       1.9  T
   5    -13.6156655 -0.730878E-06  0.127E-02    5.45       3.5  T
   6    -13.6156658 -0.363959E-06  0.654E-03    5.45       6.8  T
   7    -13.6156659 -0.149760E-07  0.432E-03    5.45      10.3  T
   8    -13.6156659 -0.685846E-07  0.179E-03    5.45      25.1  T
   9    -13.6156659 -0.103505E-07  0.925E-04    5.45      48.3  T
  10    -13.6156659 -0.731154E-09  0.632E-04    5.45      70.7  T
     SCC iter.                  ...        0 min,  0.001 sec
     gradient                   ...        0 min,  0.000 sec
 * total energy  :   -13.5836956 Eh     change       -0.7475802E-05 Eh
   gradient norm :     0.0126076 Eh/α   predicted    -0.9135284E-04 (1121.98%)
   displ. norm   :     0.1606730 α      lambda       -0.2502398E-03
   maximum displ.:     0.0911376 α      in ANC's #2, #1, #3, ...

........................................................................
.............................. CYCLE   37 ..............................
........................................................................

 iter      E             dE          RMSdq      gap      omega  full diag
   1    -13.6178871 -0.136179E+02  0.231E-01    5.51       0.0  T
   2    -13.6178965 -0.935380E-05  0.145E-01    5.50       1.0  T
   3    -13.6178905  0.603300E-05  0.995E-02    5.50       1.0  T
   4    -13.6179156 -0.251613E-04  0.145E-02    5.50       3.1  T
   5    -13.6179158 -0.189240E-06  0.118E-02    5.50       3.8  T
   6    -13.6179162 -0.347587E-06  0.495E-03    5.50       9.0  T
   7    -13.6179162 -0.617039E-07  0.227E-03    5.50      19.7  T
   8    -13.6179162 -0.151625E-07  0.146E-03    5.50      30.6  T
   9    -13.6179162 -0.620515E-08  0.620E-04    5.50      72.1  T
  10    -13.6179162 -0.811928E-09  0.102E-04    5.50     436.4  T
     SCC iter.                  ...        0 min,  0.001 sec
     gradient                   ...        0 min,  0.000 sec
 * total energy  :   -13.5837638 Eh     change       -0.6820630E-04 Eh
   gradient norm :     0.0019067 Eh/α   predicted    -0.1283511E-03 (  88.18%)
   displ. norm   :     0.0949020 α      lambda       -0.3248353E-04
   maximum displ.:     0.0539523 α      in ANC's #1, #2, #3, ...

........................................................................
.............................. CYCLE   38 ..............................
........................................................................

 iter      E             dE          RMSdq      gap      omega  full diag
   1    -13.6175360 -0.136175E+02  0.129E-01    5.49       0.0  T
   2    -13.6175365 -0.445609E-06  0.784E-02    5.49       1.0  T
   3    -13.6175335  0.295667E-05  0.274E-02    5.49       1.6  T
   4    -13.6175371 -0.360256E-05  0.626E-03    5.49       7.1  T
   5    -13.6175372 -0.424970E-07  0.388E-03    5.49      11.5  T
   6    -13.6175372 -0.282880E-07  0.167E-03    5.49      26.8  T
   7    -13.6175372 -0.243330E-08  0.476E-04    5.49      93.9  T
   8    -13.6175372 -0.249624E-09  0.269E-04    5.49     166.1  T
     SCC iter.                  ...        0 min,  0.001 sec
     gradient                   ...        0 min,  0.000 sec
 * total energy  :   -13.5838009 Eh     change       -0.3717107E-04 Eh
   gradient norm :     0.0030414 Eh/α   predicted    -0.1630554E-04 ( -56.13%)
   displ. norm   :     0.1229303 α      lambda       -0.4195310E-04
   maximum displ.:     0.0745474 α      in ANC's #1, #2, #3, ...

........................................................................
.............................. CYCLE   39 ..............................
........................................................................

 iter      E             dE          RMSdq      gap      omega  full diag
   1    -13.6171215 -0.136171E+02  0.176E-01    5.48       0.0  T
   2    -13.6171225 -0.101758E-05  0.107E-01    5.48       1.0  T
   3    -13.6171148  0.771730E-05  0.446E-02    5.48       1.0  T
   4    -13.6171241 -0.934924E-05  0.940E-03    5.48       4.8  T
   5    -13.6171243 -0.134282E-06  0.430E-03    5.48      10.4  T
   6    -13.6171243 -0.320328E-07  0.234E-03    5.48      19.1  T
   7    -13.6171243 -0.522184E-08  0.886E-04    5.48      50.5  T
   8    -13.6171243 -0.139330E-08  0.538E-04    5.48      83.2  T
     SCC iter.                  ...        0 min,  0.001 sec
     gradient                   ...        0 min,  0.000 sec
 * total energy  :   -13.5838192 Eh     change       -0.1823699E-04 Eh
   gradient norm :     0.0071796 Eh/α   predicted    -0.2129358E-04 (  16.76%)
   displ. norm   :     0.0124894 α      lambda       -0.3037283E-04
   maximum displ.:     0.0086951 α      in ANC's #4, #5, #2, ...

........................................................................
.............................. CYCLE   40 ..............................
........................................................................

 iter      E             dE          RMSdq      gap      omega  full diag
   1    -13.6175645 -0.136176E+02  0.279E-02    5.49       0.0  T
   2    -13.6175651 -0.641813E-06  0.206E-02    5.49       2.2  T
   3    -13.6175665 -0.138420E-05  0.106E-02    5.49       4.2  T
   4    -13.6175666 -0.809326E-07  0.295E-03    5.49      15.2  T
   5    -13.6175666 -0.125779E-07  0.221E-03    5.49      20.2  T
   6    -13.6175666 -0.136045E-07  0.125E-03    5.49      35.7  T
   7    -13.6175666 -0.595381E-08  0.441E-04    5.49     101.4  T
   8    -13.6175666 -0.514650E-09  0.166E-04    5.49     269.8  T
     SCC iter.                  ...        0 min,  0.001 sec
     gradient                   ...        0 min,  0.000 sec
 * total energy  :   -13.5838411 Eh     change       -0.2193775E-04 Eh
   gradient norm :     0.0042702 Eh/α   predicted    -0.1518973E-04 ( -30.76%)
   displ. norm   :     0.0649948 α      lambda       -0.3966745E-04
   maximum displ.:     0.0363131 α      in ANC's #1, #2, #7, ...

........................................................................
.............................. CYCLE   41 ..............................
........................................................................

 iter      E             dE          RMSdq      gap      omega  full diag
   1    -13.6180742 -0.136181E+02  0.951E-02    5.50       0.0  T
   2    -13.6180750 -0.749705E-06  0.597E-02    5.50       1.0  T
   3    -13.6180713  0.368067E-05  0.362E-02    5.50       1.2  T
   4    -13.6180764 -0.511014E-05  0.538E-03    5.50       8.3  T
   5    -13.6180764 -0.284728E-07  0.370E-03    5.50      12.1  T
   6    -13.6180764 -0.278666E-07  0.163E-03    5.50      27.4  T
   7    -13.6180764 -0.391181E-08  0.587E-04    5.50      76.2  T
   8    -13.6180764 -0.648367E-09  0.428E-04    5.50     104.5  T
     SCC iter.                  ...        0 min,  0.001 sec
     gradient                   ...        0 min,  0.000 sec
 * total energy  :   -13.5838716 Eh     change       -0.3052853E-04 Eh
   gradient norm :     0.0028236 Eh/α   predicted    -0.1991829E-04 ( -34.76%)
   displ. norm   :     0.1606867 α      lambda       -0.5503527E-04
   maximum displ.:     0.0951852 α      in ANC's #1, #2, #7, ...

........................................................................
.............................. CYCLE   42 ..............................
........................................................................

 iter      E             dE          RMSdq      gap      omega  full diag
   1    -13.6175839 -0.136176E+02  0.220E-01    5.50       0.0  T
   2    -13.6175850 -0.107443E-05  0.134E-01    5.50       1.0  T
   3    -13.6175861 -0.106484E-05  0.128E-02    5.50       3.5  T
   4    -13.6175863 -0.207615E-06  0.654E-03    5.50       6.8  T
   5    -13.6175863 -0.632271E-07  0.370E-03    5.50      12.1  T
   6    -13.6175864 -0.126403E-07  0.118E-03    5.50      38.0  T
   7    -13.6175864 -0.890134E-09  0.305E-04    5.50     146.5  T
   8    -13.6175864  0.398259E-10  0.192E-04    5.50     233.0  T
     SCC iter.                  ...        0 min,  0.001 sec
     gradient                   ...        0 min,  0.000 sec
 * total energy  :   -13.5839019 Eh     change       -0.3022503E-04 Eh
   gradient norm :     0.0059907 Eh/α   predicted    -0.2822787E-04 (  -6.61%)
   displ. norm   :     0.0689432 α      lambda       -0.6276381E-04
   maximum displ.:     0.0349681 α      in ANC's #2, #1, #8, ...
 * RMSD in coord.:     0.8059631 α      energy gain  -0.1288590E-02 Eh

generating ANC from model Hessian ...
Using Lindh-Hessian (1995)
 Shifting diagonal of input Hessian by   9.731123887115511E-003
 Lowest  eigenvalues of input Hessian
    0.000000    0.000000    0.000000    0.000000    0.000000    0.000000
    0.010000    0.010224    0.018107    0.021399    0.058506    0.302962
    1.192443    1.409878    1.757489
 Highest eigenvalues
    0.021399    0.058506    0.302962    1.192443    1.409878    1.757489
 

........................................................................
.............................. CYCLE   43 ..............................
........................................................................

 iter      E             dE          RMSdq      gap      omega  full diag
   1    -13.6182107 -0.136182E+02  0.108E-01    5.49       0.0  T
   2    -13.6182111 -0.327356E-06  0.662E-02    5.49       1.0  T
   3    -13.6182113 -0.178335E-06  0.933E-03    5.49       4.8  T
   4    -13.6182114 -0.179146E-06  0.665E-03    5.49       6.7  T
   5    -13.6182115 -0.558470E-07  0.354E-03    5.49      12.6  T
   6    -13.6182115 -0.277250E-07  0.172E-03    5.49      26.0  T
   7    -13.6182115 -0.310507E-08  0.473E-04    5.49      94.5  T
   8    -13.6182115 -0.283238E-09  0.348E-04    5.49     128.5  T
     SCC iter.                  ...        0 min,  0.001 sec
     gradient                   ...        0 min,  0.000 sec
 * total energy  :   -13.5839354 Eh     change       -0.3349395E-04 Eh
   gradient norm :     0.0029244 Eh/α   predicted     0.0000000E+00 (-100.00%)
   displ. norm   :     0.0258958 α      lambda       -0.1413236E-04
   maximum displ.:     0.0182323 α      in ANC's #1, #2, #3, ...

........................................................................
.............................. CYCLE   44 ..............................
........................................................................

 iter      E             dE          RMSdq      gap      omega  full diag
   1    -13.6181377 -0.136181E+02  0.304E-02    5.50       0.0  T
   2    -13.6181377 -0.204794E-07  0.188E-02    5.50       2.4  T
   3    -13.6181376  0.123486E-06  0.542E-03    5.50       8.3  T
   4    -13.6181377 -0.151626E-06  0.140E-03    5.50      32.0  T
   5    -13.6181377 -0.338302E-08  0.620E-04    5.50      72.1  T
   6    -13.6181377 -0.609848E-09  0.417E-04    5.50     107.1  T
     SCC iter.                  ...        0 min,  0.001 sec
     gradient                   ...        0 min,  0.000 sec
 * total energy  :   -13.5839460 Eh     change       -0.1066791E-04 Eh
   gradient norm :     0.0013967 Eh/α   predicted    -0.7070619E-05 ( -33.72%)
   displ. norm   :     0.0605468 α      lambda       -0.1291271E-04
   maximum displ.:     0.0566813 α      in ANC's #1, #2, #3, ...

........................................................................
.............................. CYCLE   45 ..............................
........................................................................

 iter      E             dE          RMSdq      gap      omega  full diag
   1    -13.6179682 -0.136180E+02  0.866E-02    5.51       0.0  T
   2    -13.6179684 -0.200522E-06  0.535E-02    5.51       1.0  T
   3    -13.6179678  0.580459E-06  0.134E-02    5.51       3.3  T
   4    -13.6179687 -0.839136E-06  0.513E-03    5.51       8.7  T
   5    -13.6179687 -0.367134E-07  0.270E-03    5.51      16.6  T
   6    -13.6179687 -0.147336E-07  0.132E-03    5.51      33.8  T
   7    -13.6179687 -0.218813E-08  0.446E-04    5.51     100.3  T
   8    -13.6179687 -0.302101E-09  0.352E-04    5.51     127.1  T
     SCC iter.                  ...        0 min,  0.001 sec
     gradient                   ...        0 min,  0.000 sec
 * total energy  :   -13.5839577 Eh     change       -0.1165884E-04 Eh
   gradient norm :     0.0012818 Eh/α   predicted    -0.6465556E-05 ( -44.54%)
   displ. norm   :     0.0318055 α      lambda       -0.4608347E-05
   maximum displ.:     0.0309171 α      in ANC's #1, #5, #3, ...

........................................................................
.............................. CYCLE   46 ..............................
........................................................................

 iter      E             dE          RMSdq      gap      omega  full diag
   1    -13.6180057 -0.136180E+02  0.428E-02    5.51       0.0  T
   2    -13.6180058 -0.423031E-07  0.262E-02    5.51       1.7  T
   3    -13.6180058 -0.258819E-07  0.314E-03    5.51      14.3  T
   4    -13.6180058 -0.190778E-07  0.231E-03    5.51      19.4  T
   5    -13.6180058 -0.706920E-08  0.119E-03    5.51      37.5  T
   6    -13.6180058 -0.281955E-08  0.591E-04    5.51      75.7  T
   7    -13.6180058 -0.268082E-09  0.952E-05    5.51     469.7  T
     SCC iter.                  ...        0 min,  0.001 sec
     gradient                   ...        0 min,  0.000 sec
 * total energy  :   -13.5839638 Eh     change       -0.6147202E-05 Eh
   gradient norm :     0.0008070 Eh/α   predicted    -0.2306214E-05 ( -62.48%)
   displ. norm   :     0.0339350 α      lambda       -0.4767635E-05
   maximum displ.:     0.0320259 α      in ANC's #1, #4, #3, ...

........................................................................
.............................. CYCLE   47 ..............................
........................................................................

 iter      E             dE          RMSdq      gap      omega  full diag
   1    -13.6180998 -0.136181E+02  0.413E-02    5.51       0.0  T
   2    -13.6180999 -0.322159E-07  0.252E-02    5.51       1.8  T
   3    -13.6180999 -0.292726E-07  0.229E-03    5.51      19.5  T
   4    -13.6180999 -0.408254E-08  0.186E-03    5.51      24.1  T
   5    -13.6180999 -0.573498E-08  0.814E-04    5.51      54.9  T
   6    -13.6180999 -0.108022E-08  0.483E-04    5.51      92.5  T
     SCC iter.                  ...        0 min,  0.001 sec
     gradient                   ...        0 min,  0.000 sec
 * total energy  :   -13.5839699 Eh     change       -0.6053247E-05 Eh
   gradient norm :     0.0002800 Eh/α   predicted    -0.2386057E-05 ( -60.58%)
   displ. norm   :     0.0348063 α      lambda       -0.3676491E-05
   maximum displ.:     0.0339724 α      in ANC's #1, #4, #6, ...

........................................................................
.............................. CYCLE   48 ..............................
........................................................................

 iter      E             dE          RMSdq      gap      omega  full diag
   1    -13.6180906 -0.136181E+02  0.449E-02    5.51       0.0  T
   2    -13.6180906 -0.491552E-07  0.274E-02    5.51       1.6  T
   3    -13.6180906  0.144153E-07  0.445E-03    5.51      10.0  T
   4    -13.6180907 -0.691983E-07  0.244E-03    5.51      18.3  T
   5    -13.6180907 -0.101184E-07  0.858E-04    5.51      52.1  T
   6    -13.6180907 -0.517041E-09  0.465E-04    5.51      96.2  T
     SCC iter.                  ...        0 min,  0.001 sec
     gradient                   ...        0 min,  0.000 sec
 * total energy  :   -13.5839746 Eh     change       -0.4761517E-05 Eh
   gradient norm :     0.0006884 Eh/α   predicted    -0.1838335E-05 ( -61.39%)
   displ. norm   :     0.0384415 α      lambda       -0.3367616E-05
   maximum displ.:     0.0367573 α      in ANC's #1, #4, #2, ...

   *** GEOMETRY OPTIMIZATION CONVERGED AFTER 48 ITERATIONS ***

------------------------------------------------------------------------
 total energy gain   :        -0.0532307 Eh      -33.4028 kcal/mol
 total RMSD          :         1.4809656 a0        0.7837 Å
 total power (kW/mol):        -2.9116077 (step)-1601.6921 (real)
------------------------------------------------------------------------

 ANCopt (total)                0 d,  0 h,  0 min,  0.087 sec
 optimizer setup                ...        0 min,  0.000 sec (  0.134%)
 model hessian                  ...        0 min,  0.000 sec (  0.315%)
 ANC generation                 ...        0 min,  0.000 sec (  0.216%)
 coordinate transformation      ...        0 min,  0.000 sec (  0.434%)
 single point calculation       ...        0 min,  0.081 sec ( 93.240%)
 optimization log               ...        0 min,  0.001 sec (  1.418%)
 hessian update                 ...        0 min,  0.001 sec (  0.635%)
 rational function              ...        0 min,  0.001 sec (  1.433%)

================
 final structure:
================
5
 xtb: 6.6.1 (8d0f1dd)
O           -1.09622515650587        6.06376586874148        0.45291859303805
Cl          -0.60090136420945        7.12145264311896       -0.59105932106092
H           -1.54356222623119        6.45557186489729        2.07438460311867
O           -1.76508243002603        6.60674272143055        3.01533922694932
H           -1.81238419112789        5.74238417158126        3.43140521281632
 
 Bond Distances (Angstroems)
 ---------------------------
O1-Cl2=1.5665        Cl2-O1=1.5665        H3-O4=0.9784         O4-H3=0.9784         O4-H5=0.9605         H5-O4=0.9605         
 O  H  Rav=0.9694 sigma=0.0090  Rmin=0.9605  Rmax=0.9784     2
 Cl O  Rav=1.5665 sigma=0.0000  Rmin=1.5665  Rmax=1.5665     1
 
 selected bond angles (degree)
 --------------------
H5-O4-H3=106.78                
 
 selected dihedral angles (degree)
 ---------------------------------

 
 CMA Distance (Angstroems)
 ---------------------------
R(CMA):  3.4185
           -------------------------------------------------
          |                Final Singlepoint                |
           -------------------------------------------------

          ...................................................
          :                      SETUP                      :
          :.................................................:
          :  # basis functions                  20          :
          :  # atomic orbitals                  19          :
          :  # shells                            9          :
          :  # electrons                        21          :
          :  max. iterations                   800          :
          :  Hamiltonian                  GFN2-xTB          :
          :  restarted?                      false          :
          :  GBSA solvation                  false          :
          :  PC potential                    false          :
          :  electronic temp.         6000.0000000     K    :
          :  accuracy                    1.0000000          :
          :  -> integral cutoff          0.2500000E+02      :
          :  -> integral neglect         0.1000000E-07      :
          :  -> SCF convergence          0.1000000E-05 Eh   :
          :  -> wf. convergence          0.1000000E-03 e    :
          :  Broyden damping             0.4000000          :
          ...................................................

 iter      E             dE          RMSdq      gap      omega  full diag
   1    -13.6180907 -0.136181E+02  0.117E-04    5.51       0.0  T
   2    -13.6180907 -0.115055E-10  0.941E-05    5.51     475.2  T
   3    -13.6180907 -0.983569E-11  0.754E-05    5.51     593.2  T

   *** convergence criteria satisfied after 3 iterations ***

         #    Occupation            Energy/Eh            Energy/eV
      -------------------------------------------------------------
         1        2.0000           -1.0959863             -29.8233
       ...           ...                  ...                  ...
         5        1.9994           -0.5682801             -15.4637
         6        1.9982           -0.5454726             -14.8431
         7        1.9981           -0.5444127             -14.8142
         8        1.9923           -0.5181091             -14.0985
         9        1.8616           -0.4605493             -12.5322
        10        1.5721           -0.4314533             -11.7404
        11        1.5712           -0.4313866             -11.7386 (HOMO)
        12        0.0073           -0.2290690              -6.2333 (LUMO)
        13        0.0000           -0.0417674              -1.1365
        14        0.0000           -0.0417458              -1.1360
        15        0.0000           -0.0191640              -0.5215
        16        0.0000           -0.0177246              -0.4823
       ...           ...                  ...                  ...
        19                          0.2842957               7.7361
      -------------------------------------------------------------
                  HL-Gap            0.2023176 Eh            5.5053 eV
             Fermi-level           -0.3741302 Eh          -10.1806 eV

 SCC (total)                   0 d,  0 h,  0 min,  0.001 sec
 SCC setup                      ...        0 min,  0.000 sec (  4.390%)
 Dispersion                     ...        0 min,  0.000 sec (  1.853%)
 classical contributions        ...        0 min,  0.000 sec (  1.007%)
 integral evaluation            ...        0 min,  0.000 sec ( 17.821%)
 iterations                     ...        0 min,  0.000 sec ( 36.408%)
 molecular gradient             ...        0 min,  0.000 sec ( 26.359%)
 printout                       ...        0 min,  0.000 sec (  8.780%)

         :::::::::::::::::::::::::::::::::::::::::::::::::::::
         ::                     SUMMARY                     ::
         :::::::::::::::::::::::::::::::::::::::::::::::::::::
         :: total energy             -13.583974646567 Eh    ::
         :: gradient norm              0.000687336403 Eh/a0 ::
         :: HOMO-LUMO gap              5.505342282272 eV    ::
         ::.................................................::
         :: SCC energy               -13.618090666080 Eh    ::
         :: -> isotropic ES            0.043609255580 Eh    ::
         :: -> anisotropic ES         -0.003854116903 Eh    ::
         :: -> anisotropic XC         -0.004579275715 Eh    ::
         :: -> dispersion             -0.001334211131 Eh    ::
         :: repulsion energy           0.034116221217 Eh    ::
         :: add. restraining           0.000000000000 Eh    ::
         :: total charge               0.000000000011 e     ::
         :::::::::::::::::::::::::::::::::::::::::::::::::::::

           -------------------------------------------------
          |                Property Printout                |
           -------------------------------------------------

    * Orbital Energies and Occupations

         #    Occupation            Energy/Eh            Energy/eV
      -------------------------------------------------------------
         1        2.0000           -1.0959863             -29.8233
         2        2.0000           -0.6927701             -18.8512
         3        2.0000           -0.6874527             -18.7065
         4        1.9998           -0.5885251             -16.0146
         5        1.9994           -0.5682801             -15.4637
         6        1.9982           -0.5454726             -14.8431
         7        1.9981           -0.5444127             -14.8142
         8        1.9923           -0.5181091             -14.0985
         9        1.8616           -0.4605493             -12.5322
        10        1.5721           -0.4314533             -11.7404
        11        1.5712           -0.4313866             -11.7386 (HOMO)
        12        0.0073           -0.2290690              -6.2333 (LUMO)
        13        0.0000           -0.0417674              -1.1365
        14        0.0000           -0.0417458              -1.1360
        15        0.0000           -0.0191640              -0.5215
        16        0.0000           -0.0177246              -0.4823
        17                          0.0931789               2.5355
        18                          0.2092450               5.6938
        19                          0.2842957               7.7361
      -------------------------------------------------------------
                  HL-Gap            0.2023176 Eh            5.5053 eV
             Fermi-level           -0.3741302 Eh          -10.1806 eV

     #   Z          covCN         q      C6AA      α(0)
     1   8 O        0.939    -0.367    21.001     6.146
     2  17 Cl       0.939     0.244    92.185    14.689
     3   1 H        0.803     0.337     0.620     1.237
     4   8 O        1.608    -0.514    23.232     6.505
     5   1 H        0.805     0.301     0.717     1.330

 Mol. C6AA /au·bohr⁶  :        423.150730
 Mol. C8AA /au·bohr⁸  :      12014.075560
 Mol. α(0) /au        :         29.906871


Wiberg/Mayer (AO) data.
largest (>0.10) Wiberg bond orders for each atom

 ---------------------------------------------------------------------------
     #   Z sym  total        # sym  WBO       # sym  WBO       # sym  WBO
 ---------------------------------------------------------------------------
     1   8 O    1.347 --     2 Cl   1.274
     2  17 Cl   1.286 --     1 O    1.274
     3   1 H    0.885 --     4 O    0.828
     4   8 O    1.763 --     5 H    0.908     3 H    0.828
     5   1 H    0.908 --     4 O    0.908
 ---------------------------------------------------------------------------

Topologies differ in total number of bonds
Writing topology from bond orders to xtbtopo.mol

molecular dipole:
                 x           y           z       tot (Debye)
 q only:        0.186       0.025      -0.243
   full:        0.254      -0.140      -0.432       1.323
molecular quadrupole (traceless):
                xx          xy          yy          xz          yz          zz
 q only:       -1.828       4.850       1.013       0.291      -9.820       0.815
  q+dip:        0.583       6.723      -2.615       1.542     -14.601       2.031
   full:        0.206       6.960      -2.427       1.271     -15.148       2.221

           -------------------------------------------------
          |                Geometry Summary                 |
           -------------------------------------------------

      molecular mass/u    :       69.4676289
   center of mass at/Å    :       -1.0143651       6.7296363       0.5770283
  moments of inertia/u·Å² :        0.1034137E+02   0.1738614E+03   0.1841155E+03
rotational constants/cm⁻¹ :        0.1630116E+01   0.9696016E-01   0.9156011E-01

 * 2 selected distances

     #   Z          #   Z                                           value/Å
     3   1 H        4   8 O                                       0.9784271 (max)
     4   8 O        5   1 H                                       0.9604500 (min)

 * 1 distinct bonds (by element types)

   Z      Z             #   av. dist./Å        max./Å        min./Å
   1 H    8 O           2     0.9694386     0.9784271     0.9604500


optimized geometry written to: xtbopt.xyz


           -------------------------------------------------
          | TOTAL ENERGY              -13.583974646567 Eh   |
          | GRADIENT NORM               0.000687336403 Eh/α |
          | HOMO-LUMO GAP               5.505342282272 eV   |
           -------------------------------------------------

------------------------------------------------------------------------
 * finished run on 2025/04/07 at 09:40:51.014     
------------------------------------------------------------------------
 total:
 * wall-time:     0 d,  0 h,  0 min,  0.183 sec
 *  cpu-time:     0 d,  0 h,  0 min,  0.962 sec
 * ratio c/w:     5.255 speedup
 SCF:
 * wall-time:     0 d,  0 h,  0 min,  0.025 sec
 *  cpu-time:     0 d,  0 h,  0 min,  0.183 sec
 * ratio c/w:     7.452 speedup
 ANC optimizer:
 * wall-time:     0 d,  0 h,  0 min,  0.089 sec
 *  cpu-time:     0 d,  0 h,  0 min,  0.711 sec
 * ratio c/w:     7.995 speedup

