5
 energy: -13.583982991072 gnorm: 0.000984042074 xtb: 6.6.1 (8d0f1dd)
O           -1.73832033144702        6.26525159578796        1.05215675426430
Cl          -0.72903075702705        6.76712139688120       -0.03531560429225
H           -1.24586701766863        5.62988282939678        2.58337863753743
O           -1.02302276225035        5.23138577281834        3.44883188589258
H           -1.83940085567857        4.88749684632293        3.81688590747355
