      -----------------------------------------------------------      
     |                   =====================                   |     
     |                           x T B                           |     
     |                   =====================                   |     
     |                         S. Grimme                         |     
     |          Mulliken Center for Theoretical Chemistry        |     
     |                    University of Bonn                     |     
      -----------------------------------------------------------      

   * xtb version 6.6.1 (8d0f1dd) compiled by 'stahn@M-Bot' on 2023-08-01

   xtb is free software: you can redistribute it and/or modify it under
   the terms of the GNU Lesser General Public License as published by
   the Free Software Foundation, either version 3 of the License, or
   (at your option) any later version.
   
   xtb is distributed in the hope that it will be useful,
   but WITHOUT ANY WARRANTY; without even the implied warranty of
   MERCHANTABILITY or FITNESS FOR A PARTICULAR PURPOSE.  See the
   GNU Lesser General Public License for more details.
   
   Cite this work as:
   * C. Bannwarth, E. Caldeweyher, S. Ehlert, A. Hansen, P. Pracht,
     J. Seibert, S. Spicher, S. Grimme, WIREs Comput. Mol. Sci., 2020, 11,
     e01493. DOI: 10.1002/wcms.1493
   
   for GFN2-xTB:
   * C. Bannwarth, S. Ehlert and S. Grimme., J. Chem. Theory Comput., 2019,
     15, 1652-1671. DOI: 10.1021/acs.jctc.8b01176
   for GFN1-xTB:
   * S. Grimme, C. Bannwarth, P. Shushkov, J. Chem. Theory Comput., 2017,
     13, 1989-2009. DOI: 10.1021/acs.jctc.7b00118
   for GFN0-xTB:
   * P. Pracht, E. Caldeweyher, S. Ehlert, S. Grimme, ChemRxiv, 2019, preprint.
     DOI: 10.26434/chemrxiv.8326202.v1
   for GFN-FF:
   * S. Spicher and S. Grimme, Angew. Chem. Int. Ed., 2020, 59, 15665-15673.
     DOI: 10.1002/anie.202004239
   
   for ALPB and GBSA implicit solvation:
   * S. Ehlert, M. Stahn, S. Spicher, S. Grimme, J. Chem. Theory Comput.,
     2021, 17, 4250-4261. DOI: 10.1021/acs.jctc.1c00471
   
   for DFT-D4:
   * E. Caldeweyher, C. Bannwarth and S. Grimme, J. Chem. Phys., 2017,
     147, 034112. DOI: 10.1063/1.4993215
   * E. Caldeweyher, S. Ehlert, A. Hansen, H. Neugebauer, S. Spicher,
     C. Bannwarth and S. Grimme, J. Chem. Phys., 2019, 150, 154122.
     DOI: 10.1063/1.5090222
   * E. Caldeweyher, J.-M. Mewes, S. Ehlert and S. Grimme, Phys. Chem. Chem. Phys.
     2020, 22, 8499-8512. DOI: 10.1039/D0CP00502A
   
   for sTDA-xTB:
   * S. Grimme and C. Bannwarth, J. Chem. Phys., 2016, 145, 054103.
     DOI: 10.1063/1.4959605
   
   in the mass-spec context:
   * V. Asgeirsson, C. Bauer and S. Grimme, Chem. Sci., 2017, 8, 4879.
     DOI: 10.1039/c7sc00601b
   * J. Koopman and S. Grimme, ACS Omega 2019, 4, 12, 15120-15133.
     DOI: 10.1021/acsomega.9b02011
   
   for metadynamics refer to:
   * S. Grimme, J. Chem. Theory Comput., 2019, 155, 2847-2862
     DOI: 10.1021/acs.jctc.9b00143
   
   for SPH calculations refer to:
   * S. Spicher and S. Grimme, J. Chem. Theory Comput., 2021, 17, 1701-1714
     DOI: 10.1021/acs.jctc.0c01306
   
   with help from (in alphabetical order)
   P. Atkinson, C. Bannwarth, F. Bohle, G. Brandenburg, E. Caldeweyher
   M. Checinski, S. Dohm, S. Ehlert, S. Ehrlich, I. Gerasimov, C. Hölzer
   A. Katbashev, J. Koopman, C. Lavigne, S. Lehtola, F. März, M. Müller,
   F. Musil, H. Neugebauer, J. Pisarek, C. Plett, P. Pracht, F. Pultar,
   J. Seibert, P. Shushkov, S. Spicher, M. Stahn, M. Steiner, T. Strunk,
   J. Stückrath, T. Rose, and J. Unsleber
   
 * started run on 2025/04/07 at 09:40:51.027     

           -------------------------------------------------
          |                Calculation Setup                |
           -------------------------------------------------

          program call               : xtb 509.xyz --input 509.inp --opt
          hostname                   : serv11
          coordinate file            : 509.xyz
          omp threads                :                     8

   ID    Z sym.   atoms
    1    8 O      1, 4
    2   17 Cl     2
    3    1 H      3, 5

molecular fragmentation (1/2 indicates fragments):
11122
# atoms in fragment 1/2:     3     2
 fragment masses (1/2) :       52.46       17.01
CMA distance (Bohr)    :   6.799
constraining FC (au)   :  0.0500

           -------------------------------------------------
          |                 G F N 2 - x T B                 |
           -------------------------------------------------

        Reference                      10.1021/acs.jctc.8b01176
      * Hamiltonian:
        H0-scaling (s, p, d)           1.850000    2.230000    2.230000
        zeta-weighting                 0.500000
      * Dispersion:
        s8                             2.700000
        a1                             0.520000
        a2                             5.000000
        s9                             5.000000
      * Repulsion:
        kExp                           1.500000    1.000000
        rExp                           1.000000
      * Coulomb:
        alpha                          2.000000
        third order                    shell-resolved
        anisotropic                    true
        a3                             3.000000
        a5                             4.000000
        cn-shift                       1.200000
        cn-exp                         4.000000
        max-rad                        5.000000

q/qsh data taken from xtbrestart
CAMM data taken from xtbrestart

          ...................................................
          :                      SETUP                      :
          :.................................................:
          :  # basis functions                  20          :
          :  # atomic orbitals                  19          :
          :  # shells                            9          :
          :  # electrons                        21          :
          :  max. iterations                   800          :
          :  Hamiltonian                  GFN2-xTB          :
          :  restarted?                       true          :
          :  GBSA solvation                  false          :
          :  PC potential                    false          :
          :  electronic temp.         6000.0000000     K    :
          :  accuracy                    1.0000000          :
          :  -> integral cutoff          0.2500000E+02      :
          :  -> integral neglect         0.1000000E-07      :
          :  -> SCF convergence          0.1000000E-05 Eh   :
          :  -> wf. convergence          0.1000000E-03 e    :
          :  Broyden damping             0.4000000          :
          ...................................................

 iter      E             dE          RMSdq      gap      omega  full diag
   1    -13.5276164 -0.135276E+02  0.549E+00    2.76       0.0  T
   2    -13.4778775  0.497389E-01  0.371E+00    3.86       1.0  T
   3    -13.4962482 -0.183707E-01  0.395E+00    2.22       1.0  T
   4    -13.5540379 -0.577897E-01  0.573E-01    3.41       1.0  T
   5    -13.5547345 -0.696628E-03  0.311E-01    3.48       1.0  T
   6    -13.5546896  0.449177E-04  0.251E-01    3.57       1.0  T
   7    -13.5548594 -0.169805E-03  0.105E-01    3.53       1.0  T
   8    -13.5548738 -0.144005E-04  0.380E-02    3.54       1.2  T
   9    -13.5548775 -0.375257E-05  0.210E-02    3.53       2.1  T
  10    -13.5548787 -0.116999E-05  0.128E-02    3.53       3.5  T
  11    -13.5548792 -0.519338E-06  0.798E-03    3.54       5.6  T
  12    -13.5548793 -0.937676E-07  0.533E-03    3.54       8.4  T
  13    -13.5548794 -0.959035E-07  0.854E-04    3.54      52.3  T
  14    -13.5548794 -0.152275E-08  0.322E-04    3.54     138.7  T

   *** convergence criteria satisfied after 14 iterations ***

         #    Occupation            Energy/Eh            Energy/eV
      -------------------------------------------------------------
         1        2.0000           -1.0965238             -29.8379
       ...           ...                  ...                  ...
         5        1.9986           -0.5584021             -15.1949
         6        1.9956           -0.5371365             -14.6162
         7        1.9950           -0.5347017             -14.5500
         8        1.9194           -0.4804070             -13.0725
         9        1.7791           -0.4583845             -12.4733
        10        1.6533           -0.4468664             -12.1599
        11        1.6078           -0.4433462             -12.0641 (HOMO)
        12        0.0513           -0.3133699              -8.5272 (LUMO)
        13                         -0.0416855              -1.1343
        14                         -0.0410574              -1.1172
        15                         -0.0409538              -1.1144
        16                         -0.0317710              -0.8645
       ...                                ...                  ...
        19                          0.1422828               3.8717
      -------------------------------------------------------------
                  HL-Gap            0.1299763 Eh            3.5368 eV
             Fermi-level           -0.4014686 Eh          -10.9245 eV

 SCC (total)                   0 d,  0 h,  0 min,  0.022 sec
 SCC setup                      ...        0 min,  0.000 sec (  0.522%)
 Dispersion                     ...        0 min,  0.000 sec (  0.200%)
 classical contributions        ...        0 min,  0.000 sec (  0.152%)
 integral evaluation            ...        0 min,  0.018 sec ( 78.499%)
 iterations                     ...        0 min,  0.004 sec ( 17.471%)
 molecular gradient             ...        0 min,  0.001 sec (  2.274%)
 printout                       ...        0 min,  0.000 sec (  0.660%)

         :::::::::::::::::::::::::::::::::::::::::::::::::::::
         ::                     SUMMARY                     ::
         :::::::::::::::::::::::::::::::::::::::::::::::::::::
         :: total energy             -13.537468509288 Eh    ::
         :: gradient norm              0.074847849767 Eh/a0 ::
         :: HOMO-LUMO gap              3.536835838787 eV    ::
         ::.................................................::
         :: SCC energy               -13.554879399642 Eh    ::
         :: -> isotropic ES            0.043692566096 Eh    ::
         :: -> anisotropic ES         -0.004229455789 Eh    ::
         :: -> anisotropic XC         -0.002280902554 Eh    ::
         :: -> dispersion             -0.001267173837 Eh    ::
         :: repulsion energy           0.017410955035 Eh    ::
         :: add. restraining           0.000000000000 Eh    ::
         :: total charge               0.000000000002 e     ::
         :::::::::::::::::::::::::::::::::::::::::::::::::::::

      ----------------------------------------------------------- 
     |                   =====================                   |
     |                        A N C O P T                        |
     |                   =====================                   |
     |               Approximate Normal Coordinate               |
     |                Rational Function Optimizer                |
      ----------------------------------------------------------- 

          ...................................................
          :                      SETUP                      :
          :.................................................:
          :   optimization level            normal          :
          :   max. optcycles                   200          :
          :   ANC micro-cycles                  20          :
          :   degrees of freedom                 9          :
          :.................................................:
          :   RF solver                   davidson          :
          :   write xtbopt.log                true          :
          :   linear?                        false          :
          :   energy convergence         0.5000000E-05 Eh   :
          :   grad. convergence          0.1000000E-02 Eh/α :
          :   maxmium RF displ.          1.0000000          :
          :   Hlow (freq-cutoff)         0.1000000E-01      :
          :   Hmax (freq-cutoff)         5.0000000          :
          :   S6 in model hess.         20.0000000          :
          ...................................................

generating ANC from model Hessian ...
Using Lindh-Hessian (1995)
 Shifting diagonal of input Hessian by   1.004835723585455E-002
 Lowest  eigenvalues of input Hessian
    0.010000    0.000000    0.000000    0.000000    0.000000    0.000000
    0.000000    0.010235    0.016274    0.020343    0.052560    0.148298
    0.755665    1.060990    1.304961
 Highest eigenvalues
    0.020343    0.052560    0.148298    0.755665    1.060990    1.304961
 

........................................................................
.............................. CYCLE    1 ..............................
........................................................................

 iter      E             dE          RMSdq      gap      omega  full diag
   1    -13.5548794 -0.135549E+02  0.151E-04    3.54       0.0  T
   2    -13.5548794  0.168372E-09  0.185E-04    3.54     241.9  T
   3    -13.5548794 -0.228647E-09  0.761E-05    3.54     587.5  T
     SCC iter.                  ...        0 min,  0.002 sec
     gradient                   ...        0 min,  0.000 sec
 * total energy  :   -13.5374685 Eh     change       -0.4054694E-09 Eh
   gradient norm :     0.0748485 Eh/α   predicted     0.0000000E+00 (-100.00%)
   displ. norm   :     0.3864690 α      lambda       -0.1633750E-01
   maximum displ.:     0.3340147 α      in ANC's #5, #6, #2, ...

........................................................................
.............................. CYCLE    2 ..............................
........................................................................

 iter      E             dE          RMSdq      gap      omega  full diag
   1    -13.5695534 -0.135696E+02  0.773E-01    4.18       0.0  T
   2    -13.5666794  0.287406E-02  0.918E-01    3.63       1.0  T
   3    -13.5714995 -0.482014E-02  0.286E-01    4.03       1.0  T
   4    -13.5716043 -0.104796E-03  0.100E-01    3.97       1.0  T
   5    -13.5716160 -0.117123E-04  0.353E-02    3.97       1.3  T
   6    -13.5716175 -0.145428E-05  0.230E-02    3.97       1.9  T
   7    -13.5716190 -0.158191E-05  0.131E-02    3.97       3.4  T
   8    -13.5716197 -0.652761E-06  0.595E-03    3.97       7.5  T
   9    -13.5716198 -0.977894E-07  0.347E-03    3.97      12.9  T
  10    -13.5716198 -0.278293E-07  0.210E-03    3.96      21.3  T
  11    -13.5716198 -0.148683E-07  0.366E-04    3.96     122.3  T
  12    -13.5716198 -0.310504E-09  0.539E-05    3.96     829.2  T
     SCC iter.                  ...        0 min,  0.002 sec
     gradient                   ...        0 min,  0.000 sec
 * total energy  :   -13.5497681 Eh     change       -0.1229956E-01 Eh
   gradient norm :     0.0451797 Eh/α   predicted    -0.9388816E-02 ( -23.67%)
   displ. norm   :     0.5644353 α      lambda       -0.1217100E-01
   maximum displ.:     0.3594620 α      in ANC's #5, #3, #2, ...

........................................................................
.............................. CYCLE    3 ..............................
........................................................................

 iter      E             dE          RMSdq      gap      omega  full diag
   1    -13.5839467 -0.135839E+02  0.100E+00    4.60       0.0  T
   2    -13.5807373  0.320940E-02  0.104E+00    4.11       1.0  T
   3    -13.5869063 -0.616897E-02  0.378E-01    4.48       1.0  T
   4    -13.5871533 -0.247054E-03  0.948E-02    4.42       1.0  T
   5    -13.5871631 -0.970847E-05  0.520E-02    4.41       1.0  T
   6    -13.5871685 -0.549475E-05  0.322E-02    4.41       1.4  T
   7    -13.5871717 -0.319264E-05  0.189E-02    4.41       2.4  T
   8    -13.5871733 -0.154840E-05  0.691E-03    4.40       6.5  T
   9    -13.5871734 -0.143203E-06  0.226E-03    4.40      19.8  T
  10    -13.5871734 -0.518339E-08  0.159E-03    4.40      28.2  T
  11    -13.5871734 -0.701398E-08  0.625E-04    4.40      71.6  T
  12    -13.5871734 -0.114215E-08  0.144E-04    4.40     309.6  T
     SCC iter.                  ...        0 min,  0.002 sec
     gradient                   ...        0 min,  0.000 sec
 * total energy  :   -13.5558409 Eh     change       -0.6072878E-02 Eh
   gradient norm :     0.0482654 Eh/α   predicted    -0.8024268E-02 (  32.13%)
   displ. norm   :     0.4557224 α      lambda       -0.5150160E-02
   maximum displ.:     0.3133177 α      in ANC's #2, #1, #5, ...

........................................................................
.............................. CYCLE    4 ..............................
........................................................................

 iter      E             dE          RMSdq      gap      omega  full diag
   1    -13.5762529 -0.135763E+02  0.821E-01    4.43       0.0  T
   2    -13.5761698  0.830962E-04  0.521E-01    4.35       1.0  T
   3    -13.5750179  0.115189E-02  0.527E-01    4.50       1.0  T
   4    -13.5764222 -0.140432E-02  0.510E-02    4.39       1.0  T
   5    -13.5764241 -0.192608E-05  0.312E-02    4.39       1.4  T
   6    -13.5764251 -0.926840E-06  0.144E-02    4.39       3.1  T
   7    -13.5764253 -0.242742E-06  0.614E-03    4.39       7.3  T
   8    -13.5764254 -0.563895E-07  0.273E-03    4.39      16.4  T
   9    -13.5764254 -0.906320E-08  0.406E-04    4.39     110.2  T
  10    -13.5764254 -0.238153E-09  0.109E-04    4.39     412.2  T
     SCC iter.                  ...        0 min,  0.001 sec
     gradient                   ...        0 min,  0.000 sec
 * total energy  :   -13.5566445 Eh     change       -0.8035208E-03 Eh
   gradient norm :     0.0611557 Eh/α   predicted    -0.3109883E-02 ( 287.03%)
   displ. norm   :     0.2228236 α      lambda       -0.5048469E-02
   maximum displ.:     0.1663337 α      in ANC's #3, #1, #5, ...

........................................................................
.............................. CYCLE    5 ..............................
........................................................................

 iter      E             dE          RMSdq      gap      omega  full diag
   1    -13.5832370 -0.135832E+02  0.272E-01    4.45       0.0  T
   2    -13.5832328  0.414308E-05  0.167E-01    4.43       1.0  T
   3    -13.5831109  0.121957E-03  0.180E-01    4.48       1.0  T
   4    -13.5832606 -0.149681E-03  0.217E-02    4.45       2.1  T
   5    -13.5832610 -0.480713E-06  0.163E-02    4.45       2.7  T
   6    -13.5832615 -0.435705E-06  0.974E-03    4.45       4.6  T
   7    -13.5832618 -0.318514E-06  0.439E-03    4.45      10.2  T
   8    -13.5832619 -0.601376E-07  0.245E-03    4.45      18.3  T
   9    -13.5832619 -0.182549E-07  0.103E-03    4.45      43.6  T
  10    -13.5832619 -0.248583E-08  0.217E-04    4.45     205.7  T
  11    -13.5832619 -0.488409E-10  0.470E-05    4.45     952.3  T
     SCC iter.                  ...        0 min,  0.001 sec
     gradient                   ...        0 min,  0.000 sec
 * total energy  :   -13.5593416 Eh     change       -0.2697089E-02 Eh
   gradient norm :     0.0280972 Eh/α   predicted    -0.2649561E-02 (  -1.76%)
   displ. norm   :     0.3394794 α      lambda       -0.3013870E-02
   maximum displ.:     0.2432812 α      in ANC's #3, #4, #1, ...

........................................................................
.............................. CYCLE    6 ..............................
........................................................................

 iter      E             dE          RMSdq      gap      omega  full diag
   1    -13.5830258 -0.135830E+02  0.473E-01    4.64       0.0  T
   2    -13.5829145  0.111205E-03  0.350E-01    4.55       1.0  T
   3    -13.5830056 -0.910531E-04  0.261E-01    4.64       1.0  T
   4    -13.5832118 -0.206236E-03  0.294E-02    4.60       1.5  T
   5    -13.5832130 -0.121536E-05  0.169E-02    4.60       2.7  T
   6    -13.5832132 -0.186130E-06  0.548E-03    4.60       8.2  T
   7    -13.5832133 -0.352956E-07  0.263E-03    4.60      17.0  T
   8    -13.5832133 -0.910169E-08  0.144E-03    4.60      31.0  T
   9    -13.5832133 -0.349188E-08  0.364E-04    4.60     122.9  T
  10    -13.5832133 -0.281942E-09  0.218E-04    4.60     204.7  T
     SCC iter.                  ...        0 min,  0.001 sec
     gradient                   ...        0 min,  0.000 sec
 * total energy  :   -13.5614942 Eh     change       -0.2152640E-02 Eh
   gradient norm :     0.0369184 Eh/α   predicted    -0.1680601E-02 ( -21.93%)
   displ. norm   :     0.5468396 α      lambda       -0.6039450E-02
   maximum displ.:     0.4262778 α      in ANC's #3, #5, #2, ...

........................................................................
.............................. CYCLE    7 ..............................
........................................................................

 iter      E             dE          RMSdq      gap      omega  full diag
   1    -13.5908136 -0.135908E+02  0.999E-01    4.96       0.0  T
   2    -13.5909407 -0.127092E-03  0.580E-01    4.84       1.0  T
   3    -13.5912503 -0.309617E-03  0.500E-01    4.95       1.0  T
   4    -13.5917901 -0.539813E-03  0.671E-02    4.90       1.0  T
   5    -13.5917959 -0.575680E-05  0.411E-02    4.90       1.1  T
   6    -13.5917972 -0.128877E-05  0.115E-02    4.90       3.9  T
   7    -13.5917973 -0.144380E-06  0.621E-03    4.90       7.2  T
   8    -13.5917974 -0.694457E-07  0.395E-03    4.90      11.3  T
   9    -13.5917975 -0.453239E-07  0.131E-03    4.90      34.2  T
  10    -13.5917975 -0.421624E-08  0.851E-04    4.90      52.5  T
  11    -13.5917975 -0.206740E-08  0.413E-04    4.90     108.2  T
     SCC iter.                  ...        0 min,  0.001 sec
     gradient                   ...        0 min,  0.000 sec
 * total energy  :   -13.5650091 Eh     change       -0.3514906E-02 Eh
   gradient norm :     0.0515750 Eh/α   predicted    -0.3922739E-02 (  11.60%)
   displ. norm   :     0.3343093 α      lambda       -0.1071472E-01
   maximum displ.:     0.2399429 α      in ANC's #4, #1, #9, ...

........................................................................
.............................. CYCLE    8 ..............................
........................................................................

 iter      E             dE          RMSdq      gap      omega  full diag
   1    -13.5996859 -0.135997E+02  0.697E-01    5.14       0.0  T
   2    -13.5998907 -0.204856E-03  0.426E-01    5.10       1.0  T
   3    -13.5998764  0.143138E-04  0.254E-01    5.14       1.0  T
   4    -13.5999718 -0.954468E-04  0.914E-02    5.12       1.0  T
   5    -13.5999981 -0.262628E-04  0.592E-02    5.12       1.0  T
   6    -13.6000057 -0.754763E-05  0.355E-02    5.13       1.3  T
   7    -13.6000092 -0.353314E-05  0.154E-02    5.14       2.9  T
   8    -13.6000099 -0.670411E-06  0.816E-03    5.14       5.5  T
   9    -13.6000100 -0.176618E-06  0.370E-03    5.14      12.1  T
  10    -13.6000101 -0.355034E-07  0.106E-03    5.14      42.2  T
  11    -13.6000101 -0.183331E-08  0.285E-04    5.14     157.0  T
  12    -13.6000101 -0.197947E-09  0.676E-05    5.14     661.5  T
     SCC iter.                  ...        0 min,  0.001 sec
     gradient                   ...        0 min,  0.000 sec
 * total energy  :   -13.5733310 Eh     change       -0.8321889E-02 Eh
   gradient norm :     0.0389835 Eh/α   predicted    -0.5956112E-02 ( -28.43%)
   displ. norm   :     0.5592545 α      lambda       -0.1496037E-01
   maximum displ.:     0.3142696 α      in ANC's #4, #2, #9, ...

........................................................................
.............................. CYCLE    9 ..............................
........................................................................

 iter      E             dE          RMSdq      gap      omega  full diag
   1    -13.6196004 -0.136196E+02  0.134E+00    5.85       0.0  T
   2    -13.6216803 -0.207990E-02  0.788E-01    5.79       1.0  T
   3    -13.6228087 -0.112841E-02  0.538E-01    5.81       1.0  T
   4    -13.6230892 -0.280463E-03  0.194E-01    5.79       1.0  T
   5    -13.6231950 -0.105751E-03  0.102E-01    5.78       1.0  T
   6    -13.6232124 -0.174708E-04  0.772E-02    5.77       1.0  T
   7    -13.6232155 -0.310462E-05  0.727E-02    5.75       1.0  T
   8    -13.6232429 -0.273632E-04  0.142E-02    5.75       3.2  T
   9    -13.6232439 -0.954250E-06  0.273E-03    5.75      16.4  T
  10    -13.6232439  0.204934E-08  0.228E-03    5.75      19.7  T
  11    -13.6232439 -0.154731E-07  0.651E-04    5.75      68.7  T
  12    -13.6232439 -0.240517E-08  0.160E-04    5.75     279.2  T
     SCC iter.                  ...        0 min,  0.001 sec
     gradient                   ...        0 min,  0.000 sec
 * total energy  :   -13.5679553 Eh     change        0.5375666E-02 Eh
   gradient norm :     0.1429963 Eh/α   predicted    -0.9819720E-02 (-282.67%)
   displ. norm   :     0.3016815 α      lambda       -0.2396346E-01
   maximum displ.:     0.2199097 α      in ANC's #1, #5, #3, ...

........................................................................
.............................. CYCLE   10 ..............................
........................................................................

 iter      E             dE          RMSdq      gap      omega  full diag
   1    -13.6065493 -0.136065E+02  0.118E+00    5.41       0.0  T
   2    -13.6077350 -0.118568E-02  0.819E-01    5.45       1.0  T
   3    -13.6104123 -0.267730E-02  0.409E-01    5.44       1.0  T
   4    -13.6104682 -0.558980E-04  0.138E-01    5.45       1.0  T
   5    -13.6103392  0.128969E-03  0.210E-01    5.47       1.0  T
   6    -13.6105462 -0.207008E-03  0.688E-02    5.48       1.0  T
   7    -13.6105345  0.117138E-04  0.791E-02    5.49       1.0  T
   8    -13.6105610 -0.264657E-04  0.306E-02    5.50       1.5  T
   9    -13.6105658 -0.477587E-05  0.965E-03    5.50       4.6  T
  10    -13.6105662 -0.414667E-06  0.399E-03    5.50      11.2  T
  11    -13.6105662 -0.640770E-07  0.374E-04    5.50     119.7  T
  12    -13.6105662  0.630074E-11  0.163E-04    5.50     274.9  T
     SCC iter.                  ...        0 min,  0.001 sec
     gradient                   ...        0 min,  0.000 sec
 * total energy  :   -13.5805117 Eh     change       -0.1255632E-01 Eh
   gradient norm :     0.0317359 Eh/α   predicted    -0.1307221E-01 (   4.11%)
   displ. norm   :     0.5880257 α      lambda       -0.8470910E-02
   maximum displ.:     0.3945717 α      in ANC's #3, #1, #6, ...

........................................................................
.............................. CYCLE   11 ..............................
........................................................................

 iter      E             dE          RMSdq      gap      omega  full diag
   1    -13.6160847 -0.136161E+02  0.990E-01    5.11       0.0  T
   2    -13.6162444 -0.159644E-03  0.662E-01    5.12       1.0  T
   3    -13.6158842  0.360117E-03  0.333E-01    5.12       1.0  T
   4    -13.6164133 -0.529081E-03  0.105E-01    5.13       1.0  T
   5    -13.6164240 -0.106818E-04  0.803E-02    5.14       1.0  T
   6    -13.6164386 -0.146376E-04  0.450E-02    5.15       1.0  T
   7    -13.6164411 -0.249441E-05  0.343E-02    5.16       1.3  T
   8    -13.6164469 -0.576067E-05  0.957E-03    5.17       4.7  T
   9    -13.6164470 -0.102838E-06  0.546E-03    5.17       8.2  T
  10    -13.6164469  0.127706E-06  0.671E-03    5.17       6.7  T
  11    -13.6164471 -0.234541E-06  0.147E-03    5.17      30.4  T
  12    -13.6164471 -0.112543E-07  0.204E-04    5.17     219.2  T
  13    -13.6164471 -0.191109E-09  0.222E-05    5.17    2011.9  T
     SCC iter.                  ...        0 min,  0.001 sec
     gradient                   ...        0 min,  0.000 sec
 * total energy  :   -13.5567678 Eh     change        0.2374380E-01 Eh
   gradient norm :     0.2653246 Eh/α   predicted    -0.5699950E-02 (-124.01%)
   displ. norm   :     0.3102855 α      lambda       -0.5812636E-01
   maximum displ.:     0.1839158 α      in ANC's #3, #5, #1, ...

........................................................................
.............................. CYCLE   12 ..............................
........................................................................

 iter      E             dE          RMSdq      gap      omega  full diag
   1    -13.6087274 -0.136087E+02  0.613E-01    5.45       0.0  T
   2    -13.6088015 -0.740603E-04  0.394E-01    5.44       1.0  T
   3    -13.6088039 -0.240614E-05  0.120E-01    5.44       1.0  T
   4    -13.6088498 -0.459625E-04  0.650E-02    5.43       1.0  T
   5    -13.6088521 -0.222311E-05  0.451E-02    5.43       1.0  T
   6    -13.6088569 -0.484127E-05  0.263E-02    5.42       1.7  T
   7    -13.6088592 -0.232965E-05  0.139E-02    5.42       3.2  T
   8    -13.6088599 -0.637970E-06  0.493E-03    5.42       9.1  T
   9    -13.6088599 -0.713505E-07  0.101E-03    5.41      44.5  T
  10    -13.6088599 -0.854545E-09  0.372E-04    5.41     120.1  T
  11    -13.6088599 -0.140560E-09  0.167E-04    5.41     267.5  T
     SCC iter.                  ...        0 min,  0.001 sec
     gradient                   ...        0 min,  0.000 sec
 * total energy  :   -13.5807521 Eh     change       -0.2398425E-01 Eh
   gradient norm :     0.0368929 Eh/α   predicted    -0.3186130E-01 (  32.84%)
   displ. norm   :     0.2420074 α      lambda       -0.3926320E-02
   maximum displ.:     0.1928263 α      in ANC's #2, #3, #1, ...

........................................................................
.............................. CYCLE   13 ..............................
........................................................................

 iter      E             dE          RMSdq      gap      omega  full diag
   1    -13.6178447 -0.136178E+02  0.505E-01    5.54       0.0  T
   2    -13.6179533 -0.108628E-03  0.325E-01    5.53       1.0  T
   3    -13.6181126 -0.159268E-03  0.217E-01    5.53       1.0  T
   4    -13.6181858 -0.732671E-04  0.417E-02    5.53       1.1  T
   5    -13.6181886 -0.275186E-05  0.262E-02    5.52       1.7  T
   6    -13.6181899 -0.129549E-05  0.194E-02    5.52       2.3  T
   7    -13.6181910 -0.115236E-05  0.103E-02    5.52       4.3  T
   8    -13.6181914 -0.374126E-06  0.362E-03    5.52      12.4  T
   9    -13.6181914 -0.282445E-07  0.141E-03    5.51      31.8  T
  10    -13.6181914 -0.298231E-08  0.401E-04    5.51     111.7  T
  11    -13.6181914 -0.489413E-09  0.129E-04    5.51     345.8  T
     SCC iter.                  ...        0 min,  0.001 sec
     gradient                   ...        0 min,  0.000 sec
 * total energy  :   -13.5820038 Eh     change       -0.1251746E-02 Eh
   gradient norm :     0.0242406 Eh/α   predicted    -0.2078141E-02 (  66.02%)
   displ. norm   :     0.1252588 α      lambda       -0.1026331E-02
   maximum displ.:     0.0718328 α      in ANC's #1, #6, #2, ...

........................................................................
.............................. CYCLE   14 ..............................
........................................................................

 iter      E             dE          RMSdq      gap      omega  full diag
   1    -13.6175697 -0.136176E+02  0.123E-01    5.52       0.0  T
   2    -13.6175741 -0.438879E-05  0.710E-02    5.52       1.0  T
   3    -13.6175727  0.140019E-05  0.442E-02    5.52       1.0  T
   4    -13.6175762 -0.351546E-05  0.132E-02    5.52       3.4  T
   5    -13.6175766 -0.378166E-06  0.842E-03    5.52       5.3  T
   6    -13.6175767 -0.835370E-07  0.412E-03    5.52      10.9  T
   7    -13.6175767 -0.271215E-07  0.997E-04    5.52      44.9  T
   8    -13.6175767 -0.815426E-09  0.420E-04    5.52     106.5  T
     SCC iter.                  ...        0 min,  0.001 sec
     gradient                   ...        0 min,  0.000 sec
 * total energy  :   -13.5827815 Eh     change       -0.7776558E-03 Eh
   gradient norm :     0.0094330 Eh/α   predicted    -0.5212177E-03 ( -32.98%)
   displ. norm   :     0.3327960 α      lambda       -0.1121596E-02
   maximum displ.:     0.1956158 α      in ANC's #2, #1, #3, ...

........................................................................
.............................. CYCLE   15 ..............................
........................................................................

 iter      E             dE          RMSdq      gap      omega  full diag
   1    -13.6152541 -0.136153E+02  0.314E-01    5.43       0.0  T
   2    -13.6152733 -0.191886E-04  0.203E-01    5.43       1.0  T
   3    -13.6152735 -0.256553E-06  0.140E-01    5.44       1.0  T
   4    -13.6153206 -0.470832E-04  0.256E-02    5.44       1.7  T
   5    -13.6153212 -0.612796E-06  0.195E-02    5.44       2.3  T
   6    -13.6153222 -0.925429E-06  0.864E-03    5.44       5.2  T
   7    -13.6153223 -0.160965E-06  0.439E-03    5.44      10.2  T
   8    -13.6153224 -0.538629E-07  0.257E-03    5.44      17.4  T
   9    -13.6153224 -0.202974E-07  0.137E-03    5.44      32.5  T
  10    -13.6153224 -0.435153E-08  0.169E-04    5.44     265.0  T
  11    -13.6153224 -0.322711E-10  0.466E-05    5.44     959.0  T
     SCC iter.                  ...        0 min,  0.001 sec
     gradient                   ...        0 min,  0.000 sec
 * total energy  :   -13.5833598 Eh     change       -0.5782987E-03 Eh
   gradient norm :     0.0147042 Eh/α   predicted    -0.6229057E-03 (   7.71%)
   displ. norm   :     0.1165467 α      lambda       -0.3924796E-03
   maximum displ.:     0.0816936 α      in ANC's #3, #2, #4, ...

........................................................................
.............................. CYCLE   16 ..............................
........................................................................

 iter      E             dE          RMSdq      gap      omega  full diag
   1    -13.6164664 -0.136165E+02  0.168E-01    5.53       0.0  T
   2    -13.6164862 -0.198358E-04  0.135E-01    5.53       1.0  T
   3    -13.6165211 -0.349246E-04  0.744E-02    5.53       1.0  T
   4    -13.6165244 -0.331346E-05  0.230E-02    5.52       1.9  T
   5    -13.6165251 -0.701483E-06  0.178E-02    5.52       2.5  T
   6    -13.6165261 -0.939745E-06  0.759E-03    5.52       5.9  T
   7    -13.6165262 -0.157878E-06  0.437E-03    5.52      10.2  T
   8    -13.6165263 -0.792378E-07  0.174E-03    5.52      25.7  T
   9    -13.6165263 -0.577166E-08  0.934E-04    5.52      47.9  T
  10    -13.6165263 -0.153792E-08  0.908E-05    5.52     492.7  T
     SCC iter.                  ...        0 min,  0.001 sec
     gradient                   ...        0 min,  0.000 sec
 * total energy  :   -13.5835794 Eh     change       -0.2196137E-03 Eh
   gradient norm :     0.0096358 Eh/α   predicted    -0.1989064E-03 (  -9.43%)
   displ. norm   :     0.1373625 α      lambda       -0.2396616E-03
   maximum displ.:     0.1167080 α      in ANC's #2, #3, #6, ...

........................................................................
.............................. CYCLE   17 ..............................
........................................................................

 iter      E             dE          RMSdq      gap      omega  full diag
   1    -13.6177319 -0.136177E+02  0.159E-01    5.49       0.0  T
   2    -13.6177327 -0.841300E-06  0.969E-02    5.49       1.0  T
   3    -13.6177331 -0.383288E-06  0.110E-02    5.49       4.1  T
   4    -13.6177333 -0.221697E-06  0.784E-03    5.49       5.7  T
   5    -13.6177334 -0.978967E-07  0.396E-03    5.49      11.3  T
   6    -13.6177334 -0.194913E-07  0.237E-03    5.49      18.9  T
   7    -13.6177334 -0.105925E-07  0.102E-03    5.49      43.8  T
   8    -13.6177334 -0.131101E-08  0.505E-04    5.49      88.5  T
   9    -13.6177334 -0.436184E-09  0.312E-04    5.49     143.3  T
     SCC iter.                  ...        0 min,  0.001 sec
     gradient                   ...        0 min,  0.000 sec
 * total energy  :   -13.5837102 Eh     change       -0.1307993E-03 Eh
   gradient norm :     0.0024283 Eh/α   predicted    -0.1220918E-03 (  -6.66%)
   displ. norm   :     0.0512364 α      lambda       -0.3098688E-04
   maximum displ.:     0.0316836 α      in ANC's #3, #2, #1, ...

........................................................................
.............................. CYCLE   18 ..............................
........................................................................

 iter      E             dE          RMSdq      gap      omega  full diag
   1    -13.6177031 -0.136177E+02  0.431E-02    5.50       0.0  T
   2    -13.6177035 -0.366880E-06  0.276E-02    5.50       1.6  T
   3    -13.6177034  0.562265E-07  0.187E-02    5.50       2.4  T
   4    -13.6177043 -0.864920E-06  0.310E-03    5.50      14.4  T
   5    -13.6177043 -0.135542E-07  0.192E-03    5.50      23.2  T
   6    -13.6177043 -0.874891E-08  0.972E-04    5.50      46.0  T
   7    -13.6177043 -0.216919E-08  0.412E-04    5.50     108.6  T
     SCC iter.                  ...        0 min,  0.001 sec
     gradient                   ...        0 min,  0.000 sec
 * total energy  :   -13.5837235 Eh     change       -0.1329055E-04 Eh
   gradient norm :     0.0026866 Eh/α   predicted    -0.1553548E-04 (  16.89%)
   displ. norm   :     0.0037080 α      lambda       -0.4672346E-05
   maximum displ.:     0.0025812 α      in ANC's #3, #1, #8, ...

........................................................................
.............................. CYCLE   19 ..............................
........................................................................

 iter      E             dE          RMSdq      gap      omega  full diag
   1    -13.6179357 -0.136179E+02  0.940E-03    5.50       0.0  T
   2    -13.6179358 -0.720395E-07  0.674E-03    5.50       6.6  T
   3    -13.6179359 -0.149312E-06  0.363E-03    5.50      12.3  T
   4    -13.6179360 -0.111327E-07  0.109E-03    5.50      41.1  T
   5    -13.6179360 -0.142003E-08  0.888E-04    5.50      50.3  T
   6    -13.6179360 -0.255228E-08  0.389E-04    5.50     115.0  T
     SCC iter.                  ...        0 min,  0.001 sec
     gradient                   ...        0 min,  0.000 sec
 * total energy  :   -13.5837267 Eh     change       -0.3197797E-05 Eh
   gradient norm :     0.0013523 Eh/α   predicted    -0.2335064E-05 ( -26.98%)
   displ. norm   :     0.0183533 α      lambda       -0.5666788E-05
   maximum displ.:     0.0132602 α      in ANC's #1, #2, #8, ...

........................................................................
.............................. CYCLE   20 ..............................
........................................................................

 iter      E             dE          RMSdq      gap      omega  full diag
   1    -13.6180794 -0.136181E+02  0.184E-02    5.50       0.0  T
   2    -13.6180795 -0.385034E-07  0.114E-02    5.50       3.9  T
   3    -13.6180794  0.132446E-06  0.698E-03    5.50       6.4  T
   4    -13.6180795 -0.189903E-06  0.111E-03    5.50      40.4  T
   5    -13.6180795 -0.106647E-08  0.826E-04    5.50      54.1  T
   6    -13.6180795 -0.105226E-08  0.406E-04    5.50     110.2  T
     SCC iter.                  ...        0 min,  0.001 sec
     gradient                   ...        0 min,  0.000 sec
 * total energy  :   -13.5837330 Eh     change       -0.6287266E-05 Eh
   gradient norm :     0.0008367 Eh/α   predicted    -0.2834413E-05 ( -54.92%)
   displ. norm   :     0.0489669 α      lambda       -0.1483950E-04
   maximum displ.:     0.0418931 α      in ANC's #1, #8, #2, ...
 * RMSD in coord.:     0.8535920 α      energy gain  -0.4626448E-01 Eh

generating ANC from model Hessian ...
Using Lindh-Hessian (1995)
 Shifting diagonal of input Hessian by   9.744715844345346E-003
 Lowest  eigenvalues of input Hessian
    0.000000    0.000000    0.000000    0.000000    0.000000    0.000000
    0.010000    0.010112    0.018145    0.018711    0.054951    0.302998
    1.193793    1.411279    1.778992
 Highest eigenvalues
    0.018711    0.054951    0.302998    1.193793    1.411279    1.778992
 

........................................................................
.............................. CYCLE   21 ..............................
........................................................................

 iter      E             dE          RMSdq      gap      omega  full diag
   1    -13.6182771 -0.136183E+02  0.580E-02    5.51       0.0  T
   2    -13.6182774 -0.299009E-06  0.359E-02    5.51       1.2  T
   3    -13.6182760  0.141659E-05  0.224E-02    5.51       2.0  T
   4    -13.6182780 -0.196177E-05  0.290E-03    5.51      15.4  T
   5    -13.6182780 -0.759909E-08  0.193E-03    5.51      23.2  T
   6    -13.6182780 -0.677302E-08  0.111E-03    5.51      40.2  T
   7    -13.6182780 -0.270441E-08  0.388E-04    5.51     115.2  T
   8    -13.6182780 -0.273264E-09  0.266E-04    5.51     167.9  T
     SCC iter.                  ...        0 min,  0.001 sec
     gradient                   ...        0 min,  0.000 sec
 * total energy  :   -13.5837530 Eh     change       -0.2005885E-04 Eh
   gradient norm :     0.0015697 Eh/α   predicted     0.0000000E+00 (-100.00%)
   displ. norm   :     0.0884105 α      lambda       -0.3876411E-04
   maximum displ.:     0.0790777 α      in ANC's #1, #2, #3, ...

........................................................................
.............................. CYCLE   22 ..............................
........................................................................

 iter      E             dE          RMSdq      gap      omega  full diag
   1    -13.6178948 -0.136179E+02  0.140E-01    5.50       0.0  T
   2    -13.6178955 -0.694230E-06  0.863E-02    5.50       1.0  T
   3    -13.6178955 -0.684090E-07  0.135E-02    5.50       3.3  T
   4    -13.6178961 -0.597994E-06  0.786E-03    5.50       5.7  T
   5    -13.6178962 -0.723497E-07  0.390E-03    5.50      11.5  T
   6    -13.6178962 -0.241401E-07  0.242E-03    5.50      18.5  T
   7    -13.6178962 -0.718746E-08  0.415E-04    5.50     107.8  T
   8    -13.6178962 -0.211186E-09  0.257E-04    5.50     173.8  T
     SCC iter.                  ...        0 min,  0.001 sec
     gradient                   ...        0 min,  0.000 sec
 * total energy  :   -13.5837883 Eh     change       -0.3520614E-04 Eh
   gradient norm :     0.0021257 Eh/α   predicted    -0.1944886E-04 ( -44.76%)
   displ. norm   :     0.0653850 α      lambda       -0.3939231E-04
   maximum displ.:     0.0512155 α      in ANC's #1, #4, #3, ...

........................................................................
.............................. CYCLE   23 ..............................
........................................................................

 iter      E             dE          RMSdq      gap      omega  full diag
   1    -13.6177395 -0.136177E+02  0.957E-02    5.50       0.0  T
   2    -13.6177398 -0.258860E-06  0.588E-02    5.50       1.0  T
   3    -13.6177384  0.137358E-05  0.181E-02    5.50       2.5  T
   4    -13.6177401 -0.168842E-05  0.477E-03    5.50       9.4  T
   5    -13.6177401 -0.197742E-07  0.373E-03    5.50      12.0  T
   6    -13.6177401 -0.275092E-07  0.129E-03    5.50      34.5  T
   7    -13.6177401 -0.217348E-08  0.457E-04    5.50      97.9  T
   8    -13.6177401 -0.329839E-09  0.323E-04    5.50     138.4  T
     SCC iter.                  ...        0 min,  0.001 sec
     gradient                   ...        0 min,  0.000 sec
 * total energy  :   -13.5838201 Eh     change       -0.3183113E-04 Eh
   gradient norm :     0.0036187 Eh/α   predicted    -0.1978149E-04 ( -37.85%)
   displ. norm   :     0.1250283 α      lambda       -0.5940946E-04
   maximum displ.:     0.0986892 α      in ANC's #1, #4, #3, ...

........................................................................
.............................. CYCLE   24 ..............................
........................................................................

 iter      E             dE          RMSdq      gap      omega  full diag
   1    -13.6173806 -0.136174E+02  0.179E-01    5.48       0.0  T
   2    -13.6173817 -0.107589E-05  0.110E-01    5.48       1.0  T
   3    -13.6173742  0.747636E-05  0.414E-02    5.48       1.1  T
   4    -13.6173831 -0.893258E-05  0.881E-03    5.48       5.1  T
   5    -13.6173832 -0.675889E-07  0.687E-03    5.48       6.5  T
   6    -13.6173833 -0.931232E-07  0.275E-03    5.48      16.3  T
   7    -13.6173833 -0.119484E-07  0.109E-03    5.48      41.2  T
   8    -13.6173833 -0.233340E-08  0.707E-04    5.48      63.3  T
   9    -13.6173833 -0.132233E-08  0.439E-04    5.48     101.9  T
     SCC iter.                  ...        0 min,  0.001 sec
     gradient                   ...        0 min,  0.000 sec
 * total energy  :   -13.5838532 Eh     change       -0.3307186E-04 Eh
   gradient norm :     0.0058250 Eh/α   predicted    -0.3017057E-04 (  -8.77%)
   displ. norm   :     0.0253614 α      lambda       -0.2600314E-04
   maximum displ.:     0.0167198 α      in ANC's #4, #1, #5, ...

........................................................................
.............................. CYCLE   25 ..............................
........................................................................

 iter      E             dE          RMSdq      gap      omega  full diag
   1    -13.6177282 -0.136177E+02  0.297E-02    5.49       0.0  T
   2    -13.6177284 -0.125244E-06  0.181E-02    5.49       2.5  T
   3    -13.6177281  0.255837E-06  0.126E-02    5.49       3.5  T
   4    -13.6177286 -0.494311E-06  0.146E-03    5.49      30.6  T
   5    -13.6177286 -0.151447E-08  0.102E-03    5.49      43.8  T
   6    -13.6177286 -0.167916E-08  0.583E-04    5.49      76.8  T
   7    -13.6177286 -0.956645E-09  0.285E-04    5.49     156.9  T
     SCC iter.                  ...        0 min,  0.001 sec
     gradient                   ...        0 min,  0.000 sec
 * total energy  :   -13.5838728 Eh     change       -0.1959888E-04 Eh
   gradient norm :     0.0033495 Eh/α   predicted    -0.1300929E-04 ( -33.62%)
   displ. norm   :     0.0894098 α      lambda       -0.3809611E-04
   maximum displ.:     0.0761178 α      in ANC's #1, #4, #5, ...

........................................................................
.............................. CYCLE   26 ..............................
........................................................................

 iter      E             dE          RMSdq      gap      omega  full diag
   1    -13.6177192 -0.136177E+02  0.115E-01    5.49       0.0  T
   2    -13.6177196 -0.411531E-06  0.702E-02    5.49       1.0  T
   3    -13.6177185  0.111559E-05  0.177E-02    5.49       2.5  T
   4    -13.6177200 -0.153918E-05  0.490E-03    5.49       9.1  T
   5    -13.6177201 -0.178053E-07  0.322E-03    5.49      13.9  T
   6    -13.6177201 -0.167358E-07  0.169E-03    5.49      26.5  T
   7    -13.6177201 -0.376608E-08  0.440E-04    5.49     101.7  T
   8    -13.6177201 -0.207288E-09  0.228E-04    5.49     196.4  T
     SCC iter.                  ...        0 min,  0.001 sec
     gradient                   ...        0 min,  0.000 sec
 * total energy  :   -13.5839010 Eh     change       -0.2828002E-04 Eh
   gradient norm :     0.0026587 Eh/α   predicted    -0.1920047E-04 ( -32.11%)
   displ. norm   :     0.0945686 α      lambda       -0.3220047E-04
   maximum displ.:     0.0867247 α      in ANC's #1, #4, #5, ...

........................................................................
.............................. CYCLE   27 ..............................
........................................................................

 iter      E             dE          RMSdq      gap      omega  full diag
   1    -13.6175619 -0.136176E+02  0.127E-01    5.49       0.0  T
   2    -13.6175625 -0.555885E-06  0.782E-02    5.49       1.0  T
   3    -13.6175605  0.196427E-05  0.230E-02    5.49       1.9  T
   4    -13.6175631 -0.258847E-05  0.640E-03    5.49       7.0  T
   5    -13.6175631 -0.315620E-07  0.451E-03    5.49       9.9  T
   6    -13.6175632 -0.354578E-07  0.208E-03    5.49      21.5  T
   7    -13.6175632 -0.560260E-08  0.545E-04    5.49      82.1  T
   8    -13.6175632 -0.364038E-09  0.333E-04    5.49     134.3  T
     SCC iter.                  ...        0 min,  0.001 sec
     gradient                   ...        0 min,  0.000 sec
 * total energy  :   -13.5839232 Eh     change       -0.2219494E-04 Eh
   gradient norm :     0.0028200 Eh/α   predicted    -0.1624335E-04 ( -26.82%)
   displ. norm   :     0.0719095 α      lambda       -0.2684166E-04
   maximum displ.:     0.0686793 α      in ANC's #1, #4, #7, ...

........................................................................
.............................. CYCLE   28 ..............................
........................................................................

 iter      E             dE          RMSdq      gap      omega  full diag
   1    -13.6178834 -0.136179E+02  0.104E-01    5.50       0.0  T
   2    -13.6178842 -0.788201E-06  0.641E-02    5.50       1.0  T
   3    -13.6178798  0.442199E-05  0.377E-02    5.50       1.2  T
   4    -13.6178856 -0.581544E-05  0.634E-03    5.50       7.1  T
   5    -13.6178857 -0.337734E-07  0.477E-03    5.50       9.4  T
   6    -13.6178857 -0.464925E-07  0.188E-03    5.50      23.8  T
   7    -13.6178857 -0.560897E-08  0.702E-04    5.50      63.7  T
   8    -13.6178857 -0.952756E-09  0.517E-04    5.50      86.5  T
     SCC iter.                  ...        0 min,  0.001 sec
     gradient                   ...        0 min,  0.000 sec
 * total energy  :   -13.5839423 Eh     change       -0.1903706E-04 Eh
   gradient norm :     0.0012737 Eh/α   predicted    -0.1349190E-04 ( -29.13%)
   displ. norm   :     0.3850261 α      lambda       -0.5189326E-04
   maximum displ.:     0.3621025 α      in ANC's #1, #4, #2, ...

........................................................................
.............................. CYCLE   29 ..............................
........................................................................

 iter      E             dE          RMSdq      gap      omega  full diag
   1    -13.6138568 -0.136139E+02  0.564E-01    5.42       0.0  T
   2    -13.6138792 -0.223923E-04  0.348E-01    5.43       1.0  T
   3    -13.6137292  0.149949E-03  0.219E-01    5.43       1.0  T
   4    -13.6139251 -0.195867E-03  0.333E-02    5.43       1.3  T
   5    -13.6139262 -0.112190E-05  0.258E-02    5.43       1.7  T
   6    -13.6139275 -0.126556E-05  0.997E-03    5.43       4.5  T
   7    -13.6139276 -0.103659E-06  0.668E-03    5.43       6.7  T
   8    -13.6139277 -0.167051E-06  0.263E-03    5.43      17.0  T
   9    -13.6139278 -0.242241E-07  0.114E-03    5.44      39.2  T
  10    -13.6139278 -0.299368E-09  0.876E-04    5.44      51.0  T
  11    -13.6139278 -0.350403E-08  0.183E-04    5.44     243.8  T
     SCC iter.                  ...        0 min,  0.001 sec
     gradient                   ...        0 min,  0.000 sec
 * total energy  :   -13.5835318 Eh     change        0.4104198E-03 Eh
   gradient norm :     0.0257086 Eh/α   predicted    -0.2765788E-04 (-106.74%)
   displ. norm   :     0.1924201 α      lambda       -0.9236826E-03
   maximum displ.:     0.1791706 α      in ANC's #1, #4, #5, ...

........................................................................
.............................. CYCLE   30 ..............................
........................................................................

 iter      E             dE          RMSdq      gap      omega  full diag
   1    -13.6175325 -0.136175E+02  0.296E-01    5.50       0.0  T
   2    -13.6175461 -0.136568E-04  0.188E-01    5.50       1.0  T
   3    -13.6175299  0.161595E-04  0.125E-01    5.50       1.0  T
   4    -13.6175742 -0.442038E-04  0.181E-02    5.50       2.5  T
   5    -13.6175744 -0.275521E-06  0.145E-02    5.50       3.1  T
   6    -13.6175749 -0.475418E-06  0.664E-03    5.50       6.7  T
   7    -13.6175750 -0.971841E-07  0.301E-03    5.49      14.9  T
   8    -13.6175750 -0.329240E-07  0.185E-03    5.49      24.2  T
   9    -13.6175750 -0.954978E-08  0.954E-04    5.49      46.9  T
  10    -13.6175750 -0.223162E-08  0.179E-04    5.49     250.3  T
     SCC iter.                  ...        0 min,  0.001 sec
     gradient                   ...        0 min,  0.000 sec
 * total energy  :   -13.5839672 Eh     change       -0.4353310E-03 Eh
   gradient norm :     0.0037884 Eh/α   predicted    -0.4789407E-03 (  10.02%)
   displ. norm   :     0.0241955 α      lambda       -0.2078897E-04
   maximum displ.:     0.0132536 α      in ANC's #1, #4, #2, ...

........................................................................
.............................. CYCLE   31 ..............................
........................................................................

 iter      E             dE          RMSdq      gap      omega  full diag
   1    -13.6181109 -0.136181E+02  0.431E-02    5.50       0.0  T
   2    -13.6181114 -0.483997E-06  0.274E-02    5.50       1.6  T
   3    -13.6181117 -0.253851E-06  0.190E-02    5.50       2.3  T
   4    -13.6181124 -0.726839E-06  0.343E-03    5.50      13.0  T
   5    -13.6181124 -0.110261E-07  0.279E-03    5.50      16.0  T
   6    -13.6181124 -0.201127E-07  0.101E-03    5.50      44.4  T
   7    -13.6181124 -0.278946E-08  0.428E-04    5.50     104.4  T
   8    -13.6181124 -0.369646E-09  0.332E-04    5.50     134.7  T
     SCC iter.                  ...        0 min,  0.001 sec
     gradient                   ...        0 min,  0.000 sec
 * total energy  :   -13.5839799 Eh     change       -0.1274727E-04 Eh
   gradient norm :     0.0008667 Eh/α   predicted    -0.1040023E-04 ( -18.41%)
   displ. norm   :     0.0299202 α      lambda       -0.3156851E-05
   maximum displ.:     0.0235305 α      in ANC's #1, #2, #3, ...

........................................................................
.............................. CYCLE   32 ..............................
........................................................................

 iter      E             dE          RMSdq      gap      omega  full diag
   1    -13.6182789 -0.136183E+02  0.464E-02    5.51       0.0  T
   2    -13.6182790 -0.106867E-06  0.285E-02    5.51       1.6  T
   3    -13.6182783  0.727976E-06  0.141E-02    5.51       3.2  T
   4    -13.6182792 -0.900594E-06  0.282E-03    5.51      15.9  T
   5    -13.6182792 -0.685898E-08  0.215E-03    5.51      20.8  T
   6    -13.6182792 -0.972533E-08  0.671E-04    5.51      66.6  T
   7    -13.6182792 -0.618753E-09  0.252E-04    5.51     177.5  T
     SCC iter.                  ...        0 min,  0.001 sec
     gradient                   ...        0 min,  0.000 sec
 * total energy  :   -13.5839830 Eh     change       -0.3067768E-05 Eh
   gradient norm :     0.0009572 Eh/α   predicted    -0.1579585E-05 ( -48.51%)
   displ. norm   :     0.0544903 α      lambda       -0.3460922E-05
   maximum displ.:     0.0458710 α      in ANC's #1, #2, #6, ...

   *** GEOMETRY OPTIMIZATION CONVERGED AFTER 32 ITERATIONS ***

------------------------------------------------------------------------
 total energy gain   :        -0.0465145 Eh      -29.1883 kcal/mol
 total RMSD          :         1.0675994 a0        0.5649 Å
 total power (kW/mol):        -3.8163673 (step)-1820.2447 (real)
------------------------------------------------------------------------

 ANCopt (total)                0 d,  0 h,  0 min,  0.067 sec
 optimizer setup                ...        0 min,  0.000 sec (  0.152%)
 model hessian                  ...        0 min,  0.000 sec (  0.353%)
 ANC generation                 ...        0 min,  0.000 sec (  0.209%)
 coordinate transformation      ...        0 min,  0.000 sec (  0.388%)
 single point calculation       ...        0 min,  0.062 sec ( 93.067%)
 optimization log               ...        0 min,  0.001 sec (  1.941%)
 hessian update                 ...        0 min,  0.000 sec (  0.571%)
 rational function              ...        0 min,  0.001 sec (  1.317%)

================
 final structure:
================
5
 xtb: 6.6.1 (8d0f1dd)
O           -1.73832033144702        6.26525159578796        1.05215675426430
Cl          -0.72903075702705        6.76712139688120       -0.03531560429225
H           -1.24586701766863        5.62988282939678        2.58337863753743
O           -1.02302276225035        5.23138577281834        3.44883188589258
H           -1.83940085567857        4.88749684632293        3.81688590747355
 
 Bond Distances (Angstroems)
 ---------------------------
O1-Cl2=1.5662        Cl2-O1=1.5662        H3-O4=0.9785         O4-H3=0.9785         O4-H5=0.9593         H5-O4=0.9593         
 O  H  Rav=0.9689 sigma=0.0096  Rmin=0.9593  Rmax=0.9785     2
 Cl O  Rav=1.5662 sigma=0.0000  Rmin=1.5662  Rmax=1.5662     1
 
 selected bond angles (degree)
 --------------------
H5-O4-H3=106.95                
 
 selected dihedral angles (degree)
 ---------------------------------

 
 CMA Distance (Angstroems)
 ---------------------------
R(CMA):  3.4158
           -------------------------------------------------
          |                Final Singlepoint                |
           -------------------------------------------------

          ...................................................
          :                      SETUP                      :
          :.................................................:
          :  # basis functions                  20          :
          :  # atomic orbitals                  19          :
          :  # shells                            9          :
          :  # electrons                        21          :
          :  max. iterations                   800          :
          :  Hamiltonian                  GFN2-xTB          :
          :  restarted?                      false          :
          :  GBSA solvation                  false          :
          :  PC potential                    false          :
          :  electronic temp.         6000.0000000     K    :
          :  accuracy                    1.0000000          :
          :  -> integral cutoff          0.2500000E+02      :
          :  -> integral neglect         0.1000000E-07      :
          :  -> SCF convergence          0.1000000E-05 Eh   :
          :  -> wf. convergence          0.1000000E-03 e    :
          :  Broyden damping             0.4000000          :
          ...................................................

 iter      E             dE          RMSdq      gap      omega  full diag
   1    -13.6182792 -0.136183E+02  0.207E-04    5.51       0.0  T
   2    -13.6182792 -0.380762E-10  0.179E-04    5.51     250.0  T
   3    -13.6182792 -0.462865E-10  0.143E-04    5.51     311.7  T

   *** convergence criteria satisfied after 3 iterations ***

         #    Occupation            Energy/Eh            Energy/eV
      -------------------------------------------------------------
         1        2.0000           -1.0959135             -29.8213
       ...           ...                  ...                  ...
         5        1.9995           -0.5683903             -15.4667
         6        1.9982           -0.5454146             -14.8415
         7        1.9981           -0.5443918             -14.8137
         8        1.9923           -0.5180287             -14.0963
         9        1.8620           -0.4605534             -12.5323
        10        1.5718           -0.4313724             -11.7382
        11        1.5711           -0.4313177             -11.7368 (HOMO)
        12        0.0073           -0.2289176              -6.2292 (LUMO)
        13        0.0000           -0.0417066              -1.1349
        14        0.0000           -0.0416839              -1.1343
        15        0.0000           -0.0190668              -0.5188
        16        0.0000           -0.0176333              -0.4798
       ...           ...                  ...                  ...
        19                          0.2847804               7.7493
      -------------------------------------------------------------
                  HL-Gap            0.2024001 Eh            5.5076 eV
             Fermi-level           -0.3740458 Eh          -10.1783 eV

 SCC (total)                   0 d,  0 h,  0 min,  0.001 sec
 SCC setup                      ...        0 min,  0.000 sec (  5.730%)
 Dispersion                     ...        0 min,  0.000 sec (  1.703%)
 classical contributions        ...        0 min,  0.000 sec (  1.118%)
 integral evaluation            ...        0 min,  0.000 sec ( 20.312%)
 iterations                     ...        0 min,  0.000 sec ( 34.611%)
 molecular gradient             ...        0 min,  0.000 sec ( 25.883%)
 printout                       ...        0 min,  0.000 sec (  7.894%)

         :::::::::::::::::::::::::::::::::::::::::::::::::::::
         ::                     SUMMARY                     ::
         :::::::::::::::::::::::::::::::::::::::::::::::::::::
         :: total energy             -13.583982991072 Eh    ::
         :: gradient norm              0.000984042074 Eh/a0 ::
         :: HOMO-LUMO gap              5.507587172469 eV    ::
         ::.................................................::
         :: SCC energy               -13.618279178691 Eh    ::
         :: -> isotropic ES            0.043634289657 Eh    ::
         :: -> anisotropic ES         -0.003852498345 Eh    ::
         :: -> anisotropic XC         -0.004595134073 Eh    ::
         :: -> dispersion             -0.001334845687 Eh    ::
         :: repulsion energy           0.034296391307 Eh    ::
         :: add. restraining           0.000000000000 Eh    ::
         :: total charge               0.000000000010 e     ::
         :::::::::::::::::::::::::::::::::::::::::::::::::::::

           -------------------------------------------------
          |                Property Printout                |
           -------------------------------------------------

    * Orbital Energies and Occupations

         #    Occupation            Energy/Eh            Energy/eV
      -------------------------------------------------------------
         1        2.0000           -1.0959135             -29.8213
         2        2.0000           -0.6927110             -18.8496
         3        2.0000           -0.6875110             -18.7081
         4        1.9998           -0.5885109             -16.0142
         5        1.9995           -0.5683903             -15.4667
         6        1.9982           -0.5454146             -14.8415
         7        1.9981           -0.5443918             -14.8137
         8        1.9923           -0.5180287             -14.0963
         9        1.8620           -0.4605534             -12.5323
        10        1.5718           -0.4313724             -11.7382
        11        1.5711           -0.4313177             -11.7368 (HOMO)
        12        0.0073           -0.2289176              -6.2292 (LUMO)
        13        0.0000           -0.0417066              -1.1349
        14        0.0000           -0.0416839              -1.1343
        15        0.0000           -0.0190668              -0.5188
        16        0.0000           -0.0176333              -0.4798
        17                          0.0938111               2.5527
        18                          0.2100777               5.7165
        19                          0.2847804               7.7493
      -------------------------------------------------------------
                  HL-Gap            0.2024001 Eh            5.5076 eV
             Fermi-level           -0.3740458 Eh          -10.1783 eV

     #   Z          covCN         q      C6AA      α(0)
     1   8 O        0.939    -0.367    20.998     6.146
     2  17 Cl       0.939     0.244    92.177    14.688
     3   1 H        0.803     0.337     0.620     1.237
     4   8 O        1.609    -0.515    23.240     6.506
     5   1 H        0.805     0.301     0.717     1.330

 Mol. C6AA /au·bohr⁶  :        423.158089
 Mol. C8AA /au·bohr⁸  :      12014.046376
 Mol. α(0) /au        :         29.907072


Wiberg/Mayer (AO) data.
largest (>0.10) Wiberg bond orders for each atom

 ---------------------------------------------------------------------------
     #   Z sym  total        # sym  WBO       # sym  WBO       # sym  WBO
 ---------------------------------------------------------------------------
     1   8 O    1.347 --     2 Cl   1.274
     2  17 Cl   1.286 --     1 O    1.274
     3   1 H    0.885 --     4 O    0.828
     4   8 O    1.763 --     5 H    0.908     3 H    0.828
     5   1 H    0.908 --     4 O    0.908
 ---------------------------------------------------------------------------

Topologies differ in total number of bonds
Writing topology from bond orders to xtbtopo.mol

molecular dipole:
                 x           y           z       tot (Debye)
 q only:        0.025       0.048      -0.284
   full:       -0.150       0.095      -0.466       1.268
molecular quadrupole (traceless):
                xx          xy          yy          xz          yz          zz
 q only:       -1.069       2.569       1.688      -3.778      -6.678      -0.618
  q+dip:       -0.481      -0.263       3.453      -4.606      -9.471      -2.972
   full:       -0.350       0.012       3.127      -5.127      -9.806      -2.777

           -------------------------------------------------
          |                Geometry Summary                 |
           -------------------------------------------------

      molecular mass/u    :       69.4676289
   center of mass at/Å    :       -1.0528055       6.2540586       1.1114845
  moments of inertia/u·Å² :        0.1049665E+02   0.1734285E+03   0.1838833E+03
rotational constants/cm⁻¹ :        0.1606002E+01   0.9720218E-01   0.9167573E-01

 * 2 selected distances

     #   Z          #   Z                                           value/Å
     3   1 H        4   8 O                                       0.9785034 (max)
     4   8 O        5   1 H                                       0.9592688 (min)

 * 1 distinct bonds (by element types)

   Z      Z             #   av. dist./Å        max./Å        min./Å
   1 H    8 O           2     0.9688861     0.9785034     0.9592688


optimized geometry written to: xtbopt.xyz


           -------------------------------------------------
          | TOTAL ENERGY              -13.583982991072 Eh   |
          | GRADIENT NORM               0.000984042074 Eh/α |
          | HOMO-LUMO GAP               5.507587172469 eV   |
           -------------------------------------------------

------------------------------------------------------------------------
 * finished run on 2025/04/07 at 09:40:51.176     
------------------------------------------------------------------------
 total:
 * wall-time:     0 d,  0 h,  0 min,  0.148 sec
 *  cpu-time:     0 d,  0 h,  0 min,  0.785 sec
 * ratio c/w:     5.295 speedup
 SCF:
 * wall-time:     0 d,  0 h,  0 min,  0.023 sec
 *  cpu-time:     0 d,  0 h,  0 min,  0.169 sec
 * ratio c/w:     7.473 speedup
 ANC optimizer:
 * wall-time:     0 d,  0 h,  0 min,  0.069 sec
 *  cpu-time:     0 d,  0 h,  0 min,  0.554 sec
 * ratio c/w:     7.990 speedup

