5
 energy: -13.583992226072 gnorm: 0.000532094264 xtb: 6.6.1 (8d0f1dd)
O           -1.03760977873525        6.44923854351006        1.53891403474075
Cl          -1.24281807014825        6.21364909736251        0.00472238417529
H           -0.70330031108845        5.18741653246049        2.67106077714057
O           -0.51819880942289        4.52208675986506        3.36482892940415
H           -0.48948416047437        4.99327242871603        4.20092807359430
