      -----------------------------------------------------------      
     |                   =====================                   |     
     |                           x T B                           |     
     |                   =====================                   |     
     |                         S. Grimme                         |     
     |          Mulliken Center for Theoretical Chemistry        |     
     |                    University of Bonn                     |     
      -----------------------------------------------------------      

   * xtb version 6.6.1 (8d0f1dd) compiled by 'stahn@M-Bot' on 2023-08-01

   xtb is free software: you can redistribute it and/or modify it under
   the terms of the GNU Lesser General Public License as published by
   the Free Software Foundation, either version 3 of the License, or
   (at your option) any later version.
   
   xtb is distributed in the hope that it will be useful,
   but WITHOUT ANY WARRANTY; without even the implied warranty of
   MERCHANTABILITY or FITNESS FOR A PARTICULAR PURPOSE.  See the
   GNU Lesser General Public License for more details.
   
   Cite this work as:
   * C. Bannwarth, E. Caldeweyher, S. Ehlert, A. Hansen, P. Pracht,
     J. Seibert, S. Spicher, S. Grimme, WIREs Comput. Mol. Sci., 2020, 11,
     e01493. DOI: 10.1002/wcms.1493
   
   for GFN2-xTB:
   * C. Bannwarth, S. Ehlert and S. Grimme., J. Chem. Theory Comput., 2019,
     15, 1652-1671. DOI: 10.1021/acs.jctc.8b01176
   for GFN1-xTB:
   * S. Grimme, C. Bannwarth, P. Shushkov, J. Chem. Theory Comput., 2017,
     13, 1989-2009. DOI: 10.1021/acs.jctc.7b00118
   for GFN0-xTB:
   * P. Pracht, E. Caldeweyher, S. Ehlert, S. Grimme, ChemRxiv, 2019, preprint.
     DOI: 10.26434/chemrxiv.8326202.v1
   for GFN-FF:
   * S. Spicher and S. Grimme, Angew. Chem. Int. Ed., 2020, 59, 15665-15673.
     DOI: 10.1002/anie.202004239
   
   for ALPB and GBSA implicit solvation:
   * S. Ehlert, M. Stahn, S. Spicher, S. Grimme, J. Chem. Theory Comput.,
     2021, 17, 4250-4261. DOI: 10.1021/acs.jctc.1c00471
   
   for DFT-D4:
   * E. Caldeweyher, C. Bannwarth and S. Grimme, J. Chem. Phys., 2017,
     147, 034112. DOI: 10.1063/1.4993215
   * E. Caldeweyher, S. Ehlert, A. Hansen, H. Neugebauer, S. Spicher,
     C. Bannwarth and S. Grimme, J. Chem. Phys., 2019, 150, 154122.
     DOI: 10.1063/1.5090222
   * E. Caldeweyher, J.-M. Mewes, S. Ehlert and S. Grimme, Phys. Chem. Chem. Phys.
     2020, 22, 8499-8512. DOI: 10.1039/D0CP00502A
   
   for sTDA-xTB:
   * S. Grimme and C. Bannwarth, J. Chem. Phys., 2016, 145, 054103.
     DOI: 10.1063/1.4959605
   
   in the mass-spec context:
   * V. Asgeirsson, C. Bauer and S. Grimme, Chem. Sci., 2017, 8, 4879.
     DOI: 10.1039/c7sc00601b
   * J. Koopman and S. Grimme, ACS Omega 2019, 4, 12, 15120-15133.
     DOI: 10.1021/acsomega.9b02011
   
   for metadynamics refer to:
   * S. Grimme, J. Chem. Theory Comput., 2019, 155, 2847-2862
     DOI: 10.1021/acs.jctc.9b00143
   
   for SPH calculations refer to:
   * S. Spicher and S. Grimme, J. Chem. Theory Comput., 2021, 17, 1701-1714
     DOI: 10.1021/acs.jctc.0c01306
   
   with help from (in alphabetical order)
   P. Atkinson, C. Bannwarth, F. Bohle, G. Brandenburg, E. Caldeweyher
   M. Checinski, S. Dohm, S. Ehlert, S. Ehrlich, I. Gerasimov, C. Hölzer
   A. Katbashev, J. Koopman, C. Lavigne, S. Lehtola, F. März, M. Müller,
   F. Musil, H. Neugebauer, J. Pisarek, C. Plett, P. Pracht, F. Pultar,
   J. Seibert, P. Shushkov, S. Spicher, M. Stahn, M. Steiner, T. Strunk,
   J. Stückrath, T. Rose, and J. Unsleber
   
 * started run on 2025/04/07 at 09:40:51.189     

           -------------------------------------------------
          |                Calculation Setup                |
           -------------------------------------------------

          program call               : xtb 519.xyz --input 519.inp --opt
          hostname                   : serv11
          coordinate file            : 519.xyz
          omp threads                :                     8

   ID    Z sym.   atoms
    1    8 O      1, 4
    2   17 Cl     2
    3    1 H      3, 5

molecular fragmentation (1/2 indicates fragments):
11122
# atoms in fragment 1/2:     3     2
 fragment masses (1/2) :       52.46       17.01
CMA distance (Bohr)    :   5.952
constraining FC (au)   :  0.0500

           -------------------------------------------------
          |                 G F N 2 - x T B                 |
           -------------------------------------------------

        Reference                      10.1021/acs.jctc.8b01176
      * Hamiltonian:
        H0-scaling (s, p, d)           1.850000    2.230000    2.230000
        zeta-weighting                 0.500000
      * Dispersion:
        s8                             2.700000
        a1                             0.520000
        a2                             5.000000
        s9                             5.000000
      * Repulsion:
        kExp                           1.500000    1.000000
        rExp                           1.000000
      * Coulomb:
        alpha                          2.000000
        third order                    shell-resolved
        anisotropic                    true
        a3                             3.000000
        a5                             4.000000
        cn-shift                       1.200000
        cn-exp                         4.000000
        max-rad                        5.000000

q/qsh data taken from xtbrestart
CAMM data taken from xtbrestart

          ...................................................
          :                      SETUP                      :
          :.................................................:
          :  # basis functions                  20          :
          :  # atomic orbitals                  19          :
          :  # shells                            9          :
          :  # electrons                        21          :
          :  max. iterations                   800          :
          :  Hamiltonian                  GFN2-xTB          :
          :  restarted?                       true          :
          :  GBSA solvation                  false          :
          :  PC potential                    false          :
          :  electronic temp.         6000.0000000     K    :
          :  accuracy                    1.0000000          :
          :  -> integral cutoff          0.2500000E+02      :
          :  -> integral neglect         0.1000000E-07      :
          :  -> SCF convergence          0.1000000E-05 Eh   :
          :  -> wf. convergence          0.1000000E-03 e    :
          :  Broyden damping             0.4000000          :
          ...................................................

 iter      E             dE          RMSdq      gap      omega  full diag
   1    -13.5699991 -0.135700E+02  0.536E+00    4.10       0.0  T
   2    -13.5656960  0.430313E-02  0.285E+00    4.64       1.0  T
   3    -13.5366407  0.290553E-01  0.341E+00    3.41       1.0  T
   4    -13.5790440 -0.424033E-01  0.441E-01    4.37       1.0  T
   5    -13.5793707 -0.326715E-03  0.266E-01    4.38       1.0  T
   6    -13.5793621  0.860240E-05  0.191E-01    4.42       1.0  T
   7    -13.5794676 -0.105476E-03  0.675E-02    4.39       1.0  T
   8    -13.5794755 -0.793822E-05  0.195E-02    4.40       2.3  T
   9    -13.5794753  0.221074E-06  0.176E-02    4.40       2.5  T
  10    -13.5794763 -0.102533E-05  0.685E-03    4.40       6.5  T
  11    -13.5794765 -0.202387E-06  0.345E-03    4.41      13.0  T
  12    -13.5794766 -0.350639E-07  0.129E-03    4.41      34.6  T
  13    -13.5794766 -0.199732E-08  0.452E-04    4.41      98.9  T
  14    -13.5794766 -0.421039E-09  0.114E-04    4.41     391.5  T

   *** convergence criteria satisfied after 14 iterations ***

         #    Occupation            Energy/Eh            Energy/eV
      -------------------------------------------------------------
         1        2.0000           -1.0993691             -29.9154
       ...           ...                  ...                  ...
         5        1.9993           -0.5731566             -15.5964
         6        1.9973           -0.5474875             -14.8979
         7        1.9961           -0.5399790             -14.6936
         8        1.9524           -0.4918424             -13.3837
         9        1.7475           -0.4557089             -12.4005
        10        1.6867           -0.4500761             -12.2472
        11        1.5994           -0.4429892             -12.0544 (HOMO)
        12        0.0213           -0.2810011              -7.6464 (LUMO)
        13                         -0.0447201              -1.2169
        14                         -0.0445928              -1.2134
        15                         -0.0371701              -1.0114
        16                         -0.0314179              -0.8549
       ...                                ...                  ...
        19                          0.2151878               5.8556
      -------------------------------------------------------------
                  HL-Gap            0.1619882 Eh            4.4079 eV
             Fermi-level           -0.3942997 Eh          -10.7294 eV

 SCC (total)                   0 d,  0 h,  0 min,  0.022 sec
 SCC setup                      ...        0 min,  0.000 sec (  0.972%)
 Dispersion                     ...        0 min,  0.000 sec (  0.325%)
 classical contributions        ...        0 min,  0.000 sec (  0.191%)
 integral evaluation            ...        0 min,  0.016 sec ( 73.087%)
 iterations                     ...        0 min,  0.005 sec ( 21.935%)
 molecular gradient             ...        0 min,  0.001 sec (  2.476%)
 printout                       ...        0 min,  0.000 sec (  0.731%)

         :::::::::::::::::::::::::::::::::::::::::::::::::::::
         ::                     SUMMARY                     ::
         :::::::::::::::::::::::::::::::::::::::::::::::::::::
         :: total energy             -13.557218097161 Eh    ::
         :: gradient norm              0.039458734129 Eh/a0 ::
         :: HOMO-LUMO gap              4.407923083411 eV    ::
         ::.................................................::
         :: SCC energy               -13.579476576451 Eh    ::
         :: -> isotropic ES            0.043126449097 Eh    ::
         :: -> anisotropic ES         -0.002982788866 Eh    ::
         :: -> anisotropic XC         -0.002434172251 Eh    ::
         :: -> dispersion             -0.001409494759 Eh    ::
         :: repulsion energy           0.022258550624 Eh    ::
         :: add. restraining           0.000000000000 Eh    ::
         :: total charge               0.000000000000 e     ::
         :::::::::::::::::::::::::::::::::::::::::::::::::::::

      ----------------------------------------------------------- 
     |                   =====================                   |
     |                        A N C O P T                        |
     |                   =====================                   |
     |               Approximate Normal Coordinate               |
     |                Rational Function Optimizer                |
      ----------------------------------------------------------- 

          ...................................................
          :                      SETUP                      :
          :.................................................:
          :   optimization level            normal          :
          :   max. optcycles                   200          :
          :   ANC micro-cycles                  20          :
          :   degrees of freedom                 9          :
          :.................................................:
          :   RF solver                   davidson          :
          :   write xtbopt.log                true          :
          :   linear?                        false          :
          :   energy convergence         0.5000000E-05 Eh   :
          :   grad. convergence          0.1000000E-02 Eh/α :
          :   maxmium RF displ.          1.0000000          :
          :   Hlow (freq-cutoff)         0.1000000E-01      :
          :   Hmax (freq-cutoff)         5.0000000          :
          :   S6 in model hess.         20.0000000          :
          ...................................................

generating ANC from model Hessian ...
Using Lindh-Hessian (1995)
 Shifting diagonal of input Hessian by   9.190438441609067E-003
 Lowest  eigenvalues of input Hessian
    0.000000    0.000000    0.000000    0.000000    0.000000    0.000000
    0.010000    0.010902    0.033552    0.053874    0.160360    0.291189
    0.890048    1.252559    1.380064
 Highest eigenvalues
    0.053874    0.160360    0.291189    0.890048    1.252559    1.380064
 

........................................................................
.............................. CYCLE    1 ..............................
........................................................................

 iter      E             dE          RMSdq      gap      omega  full diag
   1    -13.5794766 -0.135795E+02  0.264E-05    4.41       0.0  T
   2    -13.5794766  0.308553E-11  0.379E-05    4.41    1180.3  T
   3    -13.5794766 -0.649436E-11  0.126E-05    4.41    3545.8  T
     SCC iter.                  ...        0 min,  0.002 sec
     gradient                   ...        0 min,  0.000 sec
 * total energy  :   -13.5572181 Eh     change       -0.5196554E-10 Eh
   gradient norm :     0.0394591 Eh/α   predicted     0.0000000E+00 (-100.00%)
   displ. norm   :     0.3266130 α      lambda       -0.6054534E-02
   maximum displ.:     0.1916273 α      in ANC's #4, #2, #3, ...

........................................................................
.............................. CYCLE    2 ..............................
........................................................................

 iter      E             dE          RMSdq      gap      omega  full diag
   1    -13.5804448 -0.135804E+02  0.491E-01    4.55       0.0  T
   2    -13.5802916  0.153129E-03  0.403E-01    4.47       1.0  T
   3    -13.5804282 -0.136579E-03  0.263E-01    4.55       1.0  T
   4    -13.5806285 -0.200257E-03  0.510E-02    4.51       1.0  T
   5    -13.5806315 -0.300396E-05  0.381E-02    4.52       1.2  T
   6    -13.5806339 -0.237106E-05  0.852E-03    4.51       5.2  T
   7    -13.5806339 -0.641259E-07  0.389E-03    4.51      11.5  T
   8    -13.5806339 -0.210469E-07  0.212E-03    4.51      21.1  T
   9    -13.5806340 -0.154637E-07  0.125E-03    4.51      35.6  T
  10    -13.5806340 -0.639877E-08  0.304E-04    4.51     147.0  T
  11    -13.5806340 -0.103736E-09  0.123E-04    4.51     363.2  T
     SCC iter.                  ...        0 min,  0.001 sec
     gradient                   ...        0 min,  0.000 sec
 * total energy  :   -13.5599993 Eh     change       -0.2781187E-02 Eh
   gradient norm :     0.0335892 Eh/α   predicted    -0.3350204E-02 (  20.46%)
   displ. norm   :     0.3836448 α      lambda       -0.5119091E-02
   maximum displ.:     0.3256983 α      in ANC's #2, #4, #6, ...

........................................................................
.............................. CYCLE    3 ..............................
........................................................................

 iter      E             dE          RMSdq      gap      omega  full diag
   1    -13.5787065 -0.135787E+02  0.605E-01    4.73       0.0  T
   2    -13.5782379  0.468600E-03  0.509E-01    4.59       1.0  T
   3    -13.5790985 -0.860552E-03  0.300E-01    4.70       1.0  T
   4    -13.5792780 -0.179515E-03  0.488E-02    4.66       1.0  T
   5    -13.5792804 -0.237881E-05  0.401E-02    4.66       1.1  T
   6    -13.5792850 -0.467573E-05  0.197E-02    4.65       2.3  T
   7    -13.5792862 -0.115912E-05  0.105E-02    4.65       4.3  T
   8    -13.5792865 -0.343000E-06  0.538E-03    4.65       8.3  T
   9    -13.5792866 -0.735075E-07  0.250E-03    4.65      17.9  T
  10    -13.5792866 -0.122481E-07  0.489E-04    4.65      91.5  T
  11    -13.5792866 -0.318922E-09  0.978E-05    4.65     457.5  T
     SCC iter.                  ...        0 min,  0.001 sec
     gradient                   ...        0 min,  0.000 sec
 * total energy  :   -13.5620126 Eh     change       -0.2013277E-02 Eh
   gradient norm :     0.0544061 Eh/α   predicted    -0.2936263E-02 (  45.85%)
   displ. norm   :     0.2068325 α      lambda       -0.3876070E-02
   maximum displ.:     0.1752974 α      in ANC's #1, #4, #2, ...

........................................................................
.............................. CYCLE    4 ..............................
........................................................................

 iter      E             dE          RMSdq      gap      omega  full diag
   1    -13.5862881 -0.135863E+02  0.485E-01    4.79       0.0  T
   2    -13.5861065  0.181604E-03  0.307E-01    4.71       1.0  T
   3    -13.5863132 -0.206615E-03  0.291E-01    4.79       1.0  T
   4    -13.5865451 -0.231895E-03  0.237E-02    4.75       1.9  T
   5    -13.5865455 -0.486644E-06  0.150E-02    4.75       3.0  T
   6    -13.5865459 -0.327171E-06  0.809E-03    4.75       5.5  T
   7    -13.5865460 -0.111853E-06  0.386E-03    4.75      11.6  T
   8    -13.5865460 -0.292185E-07  0.222E-03    4.75      20.2  T
   9    -13.5865460 -0.126583E-07  0.128E-03    4.75      35.0  T
  10    -13.5865460 -0.687739E-08  0.299E-04    4.75     149.7  T
  11    -13.5865460 -0.145153E-09  0.718E-05    4.75     622.9  T
     SCC iter.                  ...        0 min,  0.001 sec
     gradient                   ...        0 min,  0.000 sec
 * total energy  :   -13.5646537 Eh     change       -0.2641103E-02 Eh
   gradient norm :     0.0357857 Eh/α   predicted    -0.2020944E-02 ( -23.48%)
   displ. norm   :     0.2329497 α      lambda       -0.5427773E-02
   maximum displ.:     0.1051311 α      in ANC's #6, #7, #4, ...

........................................................................
.............................. CYCLE    5 ..............................
........................................................................

 iter      E             dE          RMSdq      gap      omega  full diag
   1    -13.5973685 -0.135974E+02  0.807E-01    5.08       0.0  T
   2    -13.5970786  0.289907E-03  0.495E-01    4.95       1.0  T
   3    -13.5983339 -0.125534E-02  0.378E-01    5.05       1.0  T
   4    -13.5986414 -0.307456E-03  0.477E-02    5.02       1.0  T
   5    -13.5986457 -0.431672E-05  0.292E-02    5.02       1.5  T
   6    -13.5986468 -0.114236E-05  0.103E-02    5.02       4.3  T
   7    -13.5986470 -0.176038E-06  0.700E-03    5.02       6.4  T
   8    -13.5986472 -0.143178E-06  0.326E-03    5.02      13.7  T
   9    -13.5986472 -0.340732E-07  0.160E-03    5.02      27.9  T
  10    -13.5986472 -0.636848E-08  0.857E-04    5.02      52.2  T
  11    -13.5986472 -0.282644E-08  0.286E-04    5.02     156.2  T
     SCC iter.                  ...        0 min,  0.001 sec
     gradient                   ...        0 min,  0.000 sec
 * total energy  :   -13.5691894 Eh     change       -0.4535689E-02 Eh
   gradient norm :     0.0560263 Eh/α   predicted    -0.2861155E-02 ( -36.92%)
   displ. norm   :     0.5224779 α      lambda       -0.1151856E-01
   maximum displ.:     0.2738872 α      in ANC's #7, #6, #2, ...

........................................................................
.............................. CYCLE    6 ..............................
........................................................................

 iter      E             dE          RMSdq      gap      omega  full diag
   1    -13.6262256 -0.136262E+02  0.151E+00    5.54       0.0  T
   2    -13.6278961 -0.167041E-02  0.674E-01    5.48       1.0  T
   3    -13.6281517 -0.255592E-03  0.533E-01    5.52       1.0  T
   4    -13.6284839 -0.332222E-03  0.867E-02    5.50       1.0  T
   5    -13.6284968 -0.129142E-04  0.479E-02    5.49       1.0  T
   6    -13.6284983 -0.148890E-05  0.328E-02    5.49       1.4  T
   7    -13.6284994 -0.115682E-05  0.302E-02    5.49       1.5  T
   8    -13.6285032 -0.371816E-05  0.874E-03    5.48       5.1  T
   9    -13.6285035 -0.332591E-06  0.416E-03    5.48      10.7  T
  10    -13.6285035 -0.502548E-07  0.235E-03    5.48      19.1  T
  11    -13.6285036 -0.176459E-07  0.504E-04    5.48      88.7  T
  12    -13.6285036 -0.528653E-09  0.651E-05    5.48     687.3  T
     SCC iter.                  ...        0 min,  0.001 sec
     gradient                   ...        0 min,  0.000 sec
 * total energy  :   -13.5520384 Eh     change        0.1715097E-01 Eh
   gradient norm :     0.2606585 Eh/α   predicted    -0.7331470E-02 (-142.75%)
   displ. norm   :     0.2871810 α      lambda       -0.7327362E-01
   maximum displ.:     0.1991437 α      in ANC's #6, #7, #9, ...

........................................................................
.............................. CYCLE    7 ..............................
........................................................................

 iter      E             dE          RMSdq      gap      omega  full diag
   1    -13.6064118 -0.136064E+02  0.116E+00    5.17       0.0  T
   2    -13.6068909 -0.479096E-03  0.662E-01    5.25       1.0  T
   3    -13.6086391 -0.174825E-02  0.473E-01    5.20       1.0  T
   4    -13.6089576 -0.318494E-03  0.947E-02    5.22       1.0  T
   5    -13.6089648 -0.719960E-05  0.749E-02    5.22       1.0  T
   6    -13.6089734 -0.862998E-05  0.500E-02    5.23       1.0  T
   7    -13.6089761 -0.261091E-05  0.366E-02    5.24       1.2  T
   8    -13.6089832 -0.714412E-05  0.116E-02    5.25       3.9  T
   9    -13.6089836 -0.389393E-06  0.355E-03    5.25      12.6  T
  10    -13.6089836 -0.373877E-07  0.188E-03    5.25      23.8  T
  11    -13.6089836 -0.116741E-07  0.934E-04    5.25      47.9  T
  12    -13.6089836 -0.435473E-08  0.117E-04    5.25     382.5  T
     SCC iter.                  ...        0 min,  0.001 sec
     gradient                   ...        0 min,  0.000 sec
 * total energy  :   -13.5756420 Eh     change       -0.2360362E-01 Eh
   gradient norm :     0.0556436 Eh/α   predicted    -0.3965834E-01 (  68.02%)
   displ. norm   :     0.1800528 α      lambda       -0.3342395E-02
   maximum displ.:     0.1303720 α      in ANC's #4, #1, #2, ...

........................................................................
.............................. CYCLE    8 ..............................
........................................................................

 iter      E             dE          RMSdq      gap      omega  full diag
   1    -13.6075651 -0.136076E+02  0.288E-01    5.31       0.0  T
   2    -13.6075704 -0.536646E-05  0.171E-01    5.31       1.0  T
   3    -13.6075394  0.310532E-04  0.947E-02    5.32       1.0  T
   4    -13.6075771 -0.376783E-04  0.132E-02    5.31       3.4  T
   5    -13.6075775 -0.409256E-06  0.722E-03    5.31       6.2  T
   6    -13.6075775 -0.572976E-07  0.375E-03    5.31      11.9  T
   7    -13.6075775 -0.263180E-07  0.207E-03    5.31      21.7  T
   8    -13.6075776 -0.113939E-07  0.102E-03    5.31      43.9  T
   9    -13.6075776 -0.262419E-08  0.466E-04    5.31      96.1  T
  10    -13.6075776 -0.618826E-09  0.206E-04    5.31     217.4  T
     SCC iter.                  ...        0 min,  0.001 sec
     gradient                   ...        0 min,  0.000 sec
 * total energy  :   -13.5778650 Eh     change       -0.2223015E-02 Eh
   gradient norm :     0.0290451 Eh/α   predicted    -0.1725375E-02 ( -22.39%)
   displ. norm   :     0.2992416 α      lambda       -0.4750794E-02
   maximum displ.:     0.1534642 α      in ANC's #7, #5, #4, ...

........................................................................
.............................. CYCLE    9 ..............................
........................................................................

 iter      E             dE          RMSdq      gap      omega  full diag
   1    -13.6151448 -0.136151E+02  0.449E-01    5.58       0.0  T
   2    -13.6153067 -0.161896E-03  0.282E-01    5.56       1.0  T
   3    -13.6154526 -0.145840E-03  0.176E-01    5.57       1.0  T
   4    -13.6154859 -0.333654E-04  0.517E-02    5.57       1.0  T
   5    -13.6154900 -0.412053E-05  0.348E-02    5.56       1.3  T
   6    -13.6154923 -0.221902E-05  0.178E-02    5.56       2.5  T
   7    -13.6154929 -0.624350E-06  0.122E-02    5.55       3.7  T
   8    -13.6154936 -0.729151E-06  0.348E-03    5.55      12.9  T
   9    -13.6154936 -0.277729E-07  0.158E-03    5.55      28.3  T
  10    -13.6154937 -0.450851E-08  0.596E-04    5.55      75.0  T
  11    -13.6154937 -0.384288E-09  0.265E-04    5.55     168.9  T
     SCC iter.                  ...        0 min,  0.001 sec
     gradient                   ...        0 min,  0.000 sec
 * total energy  :   -13.5808872 Eh     change       -0.3022226E-02 Eh
   gradient norm :     0.0222718 Eh/α   predicted    -0.2588100E-02 ( -14.36%)
   displ. norm   :     0.1565389 α      lambda       -0.1239035E-02
   maximum displ.:     0.0912171 α      in ANC's #7, #5, #2, ...

........................................................................
.............................. CYCLE   10 ..............................
........................................................................

 iter      E             dE          RMSdq      gap      omega  full diag
   1    -13.6173844 -0.136174E+02  0.197E-01    5.55       0.0  T
   2    -13.6173871 -0.270696E-05  0.118E-01    5.55       1.0  T
   3    -13.6173875 -0.355691E-06  0.198E-02    5.55       2.3  T
   4    -13.6173883 -0.854439E-06  0.947E-03    5.55       4.7  T
   5    -13.6173884 -0.820538E-07  0.455E-03    5.55       9.8  T
   6    -13.6173884 -0.236656E-07  0.314E-03    5.55      14.3  T
   7    -13.6173885 -0.283812E-07  0.151E-03    5.55      29.6  T
   8    -13.6173885 -0.493073E-08  0.837E-04    5.55      53.4  T
   9    -13.6173885 -0.165542E-08  0.492E-04    5.55      91.0  T
     SCC iter.                  ...        0 min,  0.001 sec
     gradient                   ...        0 min,  0.000 sec
 * total energy  :   -13.5817024 Eh     change       -0.8151570E-03 Eh
   gradient norm :     0.0124315 Eh/α   predicted    -0.6346976E-03 ( -22.14%)
   displ. norm   :     0.1689694 α      lambda       -0.6513138E-03
   maximum displ.:     0.1371705 α      in ANC's #1, #7, #5, ...

........................................................................
.............................. CYCLE   11 ..............................
........................................................................

 iter      E             dE          RMSdq      gap      omega  full diag
   1    -13.6178465 -0.136178E+02  0.225E-01    5.57       0.0  T
   2    -13.6178493 -0.283457E-05  0.139E-01    5.57       1.0  T
   3    -13.6178507 -0.139576E-05  0.246E-02    5.57       1.8  T
   4    -13.6178516 -0.933676E-06  0.163E-02    5.57       2.7  T
   5    -13.6178520 -0.322487E-06  0.781E-03    5.57       5.7  T
   6    -13.6178520 -0.528265E-07  0.503E-03    5.57       8.9  T
   7    -13.6178521 -0.544617E-07  0.122E-03    5.57      36.7  T
   8    -13.6178521 -0.704643E-09  0.493E-04    5.57      90.6  T
   9    -13.6178521 -0.213417E-09  0.236E-04    5.57     189.4  T
     SCC iter.                  ...        0 min,  0.001 sec
     gradient                   ...        0 min,  0.000 sec
 * total energy  :   -13.5822072 Eh     change       -0.5048441E-03 Eh
   gradient norm :     0.0110385 Eh/α   predicted    -0.3349557E-03 ( -33.65%)
   displ. norm   :     0.3018826 α      lambda       -0.9727707E-03
   maximum displ.:     0.2384112 α      in ANC's #1, #2, #7, ...

........................................................................
.............................. CYCLE   12 ..............................
........................................................................

 iter      E             dE          RMSdq      gap      omega  full diag
   1    -13.6159377 -0.136159E+02  0.450E-01    5.52       0.0  T
   2    -13.6159780 -0.403658E-04  0.267E-01    5.52       1.0  T
   3    -13.6159462  0.318181E-04  0.182E-01    5.52       1.0  T
   4    -13.6160234 -0.771856E-04  0.344E-02    5.52       1.3  T
   5    -13.6160246 -0.123984E-05  0.240E-02    5.53       1.9  T
   6    -13.6160258 -0.118502E-05  0.102E-02    5.53       4.4  T
   7    -13.6160260 -0.158959E-06  0.538E-03    5.53       8.3  T
   8    -13.6160260 -0.681253E-07  0.291E-03    5.53      15.3  T
   9    -13.6160261 -0.225476E-07  0.182E-03    5.53      24.6  T
  10    -13.6160261 -0.105099E-07  0.325E-04    5.53     137.5  T
  11    -13.6160261 -0.290349E-09  0.134E-04    5.53     334.0  T
     SCC iter.                  ...        0 min,  0.001 sec
     gradient                   ...        0 min,  0.000 sec
 * total energy  :   -13.5827734 Eh     change       -0.5661936E-03 Eh
   gradient norm :     0.0147611 Eh/α   predicted    -0.5307091E-03 (  -6.27%)
   displ. norm   :     0.2037642 α      lambda       -0.7467554E-03
   maximum displ.:     0.1575613 α      in ANC's #2, #3, #1, ...

........................................................................
.............................. CYCLE   13 ..............................
........................................................................

 iter      E             dE          RMSdq      gap      omega  full diag
   1    -13.6167854 -0.136168E+02  0.278E-01    5.49       0.0  T
   2    -13.6167973 -0.119047E-04  0.168E-01    5.49       1.0  T
   3    -13.6167786  0.187214E-04  0.109E-01    5.49       1.0  T
   4    -13.6168123 -0.336680E-04  0.164E-02    5.49       2.7  T
   5    -13.6168125 -0.259584E-06  0.129E-02    5.49       3.5  T
   6    -13.6168129 -0.341606E-06  0.686E-03    5.49       6.5  T
   7    -13.6168130 -0.139808E-06  0.313E-03    5.49      14.3  T
   8    -13.6168130 -0.245168E-07  0.178E-03    5.49      25.1  T
   9    -13.6168130 -0.785842E-08  0.905E-04    5.49      49.4  T
  10    -13.6168130 -0.187553E-08  0.166E-04    5.50     269.3  T
     SCC iter.                  ...        0 min,  0.001 sec
     gradient                   ...        0 min,  0.000 sec
 * total energy  :   -13.5832157 Eh     change       -0.4422379E-03 Eh
   gradient norm :     0.0056641 Eh/α   predicted    -0.3888825E-03 ( -12.06%)
   displ. norm   :     0.1281601 α      lambda       -0.2689710E-03
   maximum displ.:     0.0884996 α      in ANC's #3, #1, #2, ...

........................................................................
.............................. CYCLE   14 ..............................
........................................................................

 iter      E             dE          RMSdq      gap      omega  full diag
   1    -13.6168321 -0.136168E+02  0.204E-01    5.50       0.0  T
   2    -13.6168351 -0.300647E-05  0.118E-01    5.50       1.0  T
   3    -13.6168217  0.133332E-04  0.725E-02    5.50       1.0  T
   4    -13.6168393 -0.175528E-04  0.552E-03    5.50       8.1  T
   5    -13.6168393 -0.220601E-07  0.373E-03    5.50      12.0  T
   6    -13.6168393 -0.170467E-07  0.178E-03    5.50      25.1  T
   7    -13.6168393 -0.368100E-08  0.940E-04    5.50      47.6  T
   8    -13.6168393 -0.199068E-08  0.367E-04    5.50     122.0  T
     SCC iter.                  ...        0 min,  0.001 sec
     gradient                   ...        0 min,  0.000 sec
 * total energy  :   -13.5834343 Eh     change       -0.2186701E-03 Eh
   gradient norm :     0.0057425 Eh/α   predicted    -0.1366945E-03 ( -37.49%)
   displ. norm   :     0.2143447 α      lambda       -0.4770492E-03
   maximum displ.:     0.1525828 α      in ANC's #3, #4, #1, ...

........................................................................
.............................. CYCLE   15 ..............................
........................................................................

 iter      E             dE          RMSdq      gap      omega  full diag
   1    -13.6169654 -0.136170E+02  0.338E-01    5.50       0.0  T
   2    -13.6169750 -0.957372E-05  0.194E-01    5.50       1.0  T
   3    -13.6169339  0.410418E-04  0.138E-01    5.50       1.0  T
   4    -13.6169927 -0.587683E-04  0.811E-03    5.50       5.5  T
   5    -13.6169927 -0.454869E-07  0.431E-03    5.50      10.4  T
   6    -13.6169928 -0.249293E-07  0.235E-03    5.50      19.0  T
   7    -13.6169928 -0.353049E-08  0.156E-03    5.50      28.6  T
   8    -13.6169928 -0.689437E-08  0.491E-04    5.50      91.2  T
   9    -13.6169928 -0.260670E-09  0.109E-04    5.50     410.4  T
     SCC iter.                  ...        0 min,  0.001 sec
     gradient                   ...        0 min,  0.000 sec
 * total energy  :   -13.5836914 Eh     change       -0.2570330E-03 Eh
   gradient norm :     0.0073119 Eh/α   predicted    -0.2494833E-03 (  -2.94%)
   displ. norm   :     0.0962471 α      lambda       -0.1109122E-03
   maximum displ.:     0.0757574 α      in ANC's #1, #3, #2, ...

........................................................................
.............................. CYCLE   16 ..............................
........................................................................

 iter      E             dE          RMSdq      gap      omega  full diag
   1    -13.6164519 -0.136165E+02  0.152E-01    5.48       0.0  T
   2    -13.6164555 -0.360551E-05  0.904E-02    5.48       1.0  T
   3    -13.6164514  0.415221E-05  0.673E-02    5.48       1.0  T
   4    -13.6164626 -0.112143E-04  0.892E-03    5.48       5.0  T
   5    -13.6164626 -0.684467E-07  0.689E-03    5.48       6.5  T
   6    -13.6164627 -0.957004E-07  0.326E-03    5.48      13.7  T
   7    -13.6164628 -0.217771E-07  0.156E-03    5.49      28.7  T
   8    -13.6164628 -0.576196E-08  0.880E-04    5.49      50.8  T
   9    -13.6164628 -0.186489E-08  0.496E-04    5.49      90.2  T
     SCC iter.                  ...        0 min,  0.001 sec
     gradient                   ...        0 min,  0.000 sec
 * total energy  :   -13.5837538 Eh     change       -0.6240713E-04 Eh
   gradient norm :     0.0069118 Eh/α   predicted    -0.5596808E-04 ( -10.32%)
   displ. norm   :     0.0452609 α      lambda       -0.1564937E-03
   maximum displ.:     0.0238353 α      in ANC's #3, #1, #5, ...

........................................................................
.............................. CYCLE   17 ..............................
........................................................................

 iter      E             dE          RMSdq      gap      omega  full diag
   1    -13.6188231 -0.136188E+02  0.114E-01    5.53       0.0  T
   2    -13.6188319 -0.881367E-05  0.781E-02    5.53       1.0  T
   3    -13.6188449 -0.130210E-04  0.463E-02    5.53       1.0  T
   4    -13.6188469 -0.200875E-05  0.121E-02    5.53       3.7  T
   5    -13.6188471 -0.164399E-06  0.959E-03    5.53       4.7  T
   6    -13.6188474 -0.259895E-06  0.453E-03    5.53       9.9  T
   7    -13.6188474 -0.638354E-07  0.220E-03    5.53      20.3  T
   8    -13.6188474 -0.178151E-07  0.757E-04    5.53      59.1  T
   9    -13.6188474 -0.929653E-09  0.342E-04    5.53     130.7  T
     SCC iter.                  ...        0 min,  0.001 sec
     gradient                   ...        0 min,  0.000 sec
 * total energy  :   -13.5837446 Eh     change        0.9218436E-05 Eh
   gradient norm :     0.0102302 Eh/α   predicted    -0.7840720E-04 (-950.55%)
   displ. norm   :     0.0684301 α      lambda       -0.1452726E-03
   maximum displ.:     0.0441983 α      in ANC's #3, #2, #1, ...

........................................................................
.............................. CYCLE   18 ..............................
........................................................................

 iter      E             dE          RMSdq      gap      omega  full diag
   1    -13.6176021 -0.136176E+02  0.128E-01    5.49       0.0  T
   2    -13.6176086 -0.653546E-05  0.772E-02    5.50       1.0  T
   3    -13.6176182 -0.955122E-05  0.543E-02    5.50       1.0  T
   4    -13.6176223 -0.410324E-05  0.857E-03    5.50       5.2  T
   5    -13.6176223 -0.726697E-07  0.722E-03    5.50       6.2  T
   6    -13.6176225 -0.156565E-06  0.314E-03    5.50      14.3  T
   7    -13.6176225 -0.301011E-07  0.148E-03    5.50      30.3  T
   8    -13.6176225 -0.641061E-08  0.652E-04    5.50      68.6  T
   9    -13.6176225 -0.696982E-09  0.324E-04    5.50     138.1  T
     SCC iter.                  ...        0 min,  0.001 sec
     gradient                   ...        0 min,  0.000 sec
 * total energy  :   -13.5838298 Eh     change       -0.8521727E-04 Eh
   gradient norm :     0.0039507 Eh/α   predicted    -0.7297842E-04 ( -14.36%)
   displ. norm   :     0.0531839 α      lambda       -0.2998045E-04
   maximum displ.:     0.0344983 α      in ANC's #3, #2, #1, ...

........................................................................
.............................. CYCLE   19 ..............................
........................................................................

 iter      E             dE          RMSdq      gap      omega  full diag
   1    -13.6175066 -0.136175E+02  0.815E-02    5.49       0.0  T
   2    -13.6175071 -0.498036E-06  0.481E-02    5.49       1.0  T
   3    -13.6175046  0.245392E-05  0.322E-02    5.49       1.4  T
   4    -13.6175080 -0.340556E-05  0.363E-03    5.49      12.3  T
   5    -13.6175080 -0.134133E-07  0.248E-03    5.49      18.0  T
   6    -13.6175080 -0.120412E-07  0.121E-03    5.49      37.1  T
   7    -13.6175080 -0.207442E-08  0.496E-04    5.50      90.2  T
   8    -13.6175081 -0.444446E-09  0.294E-04    5.50     152.0  T
     SCC iter.                  ...        0 min,  0.001 sec
     gradient                   ...        0 min,  0.000 sec
 * total energy  :   -13.5838534 Eh     change       -0.2367059E-04 Eh
   gradient norm :     0.0034243 Eh/α   predicted    -0.1503496E-04 ( -36.48%)
   displ. norm   :     0.0949744 α      lambda       -0.5611804E-04
   maximum displ.:     0.0580761 α      in ANC's #3, #2, #1, ...

........................................................................
.............................. CYCLE   20 ..............................
........................................................................

 iter      E             dE          RMSdq      gap      omega  full diag
   1    -13.6177044 -0.136177E+02  0.142E-01    5.50       0.0  T
   2    -13.6177050 -0.549445E-06  0.852E-02    5.50       1.0  T
   3    -13.6177028  0.214941E-05  0.260E-02    5.50       1.7  T
   4    -13.6177057 -0.284719E-05  0.685E-03    5.50       6.5  T
   5    -13.6177057 -0.647025E-07  0.319E-03    5.50      14.0  T
   6    -13.6177057 -0.146984E-07  0.189E-03    5.50      23.6  T
   7    -13.6177057 -0.321545E-08  0.437E-04    5.50     102.3  T
   8    -13.6177057 -0.152635E-09  0.144E-04    5.50     311.5  T
     SCC iter.                  ...        0 min,  0.001 sec
     gradient                   ...        0 min,  0.000 sec
 * total energy  :   -13.5838915 Eh     change       -0.3809338E-04 Eh
   gradient norm :     0.0024007 Eh/α   predicted    -0.2831368E-04 ( -25.67%)
   displ. norm   :     0.0724050 α      lambda       -0.3386875E-04
   maximum displ.:     0.0428069 α      in ANC's #1, #3, #2, ...
 * RMSD in coord.:     0.5281246 α      energy gain  -0.2667345E-01 Eh

generating ANC from model Hessian ...
Using Lindh-Hessian (1995)
 Shifting diagonal of input Hessian by   9.744353787231815E-003
 Lowest  eigenvalues of input Hessian
    0.000000    0.000000    0.000000    0.000000    0.000000    0.000000
    0.010000    0.010136    0.017142    0.019805    0.060529    0.302887
    1.186089    1.410482    1.759490
 Highest eigenvalues
    0.019805    0.060529    0.302887    1.186089    1.410482    1.759490
 

........................................................................
.............................. CYCLE   21 ..............................
........................................................................

 iter      E             dE          RMSdq      gap      omega  full diag
   1    -13.6179571 -0.136180E+02  0.111E-01    5.50       0.0  T
   2    -13.6179574 -0.340891E-06  0.675E-02    5.50       1.0  T
   3    -13.6179574  0.766217E-07  0.118E-02    5.50       3.8  T
   4    -13.6179578 -0.431989E-06  0.613E-03    5.50       7.3  T
   5    -13.6179578 -0.344875E-07  0.413E-03    5.50      10.8  T
   6    -13.6179579 -0.337910E-07  0.167E-03    5.50      26.8  T
   7    -13.6179579 -0.244004E-08  0.336E-04    5.50     133.0  T
   8    -13.6179579 -0.975664E-10  0.174E-04    5.50     256.9  T
     SCC iter.                  ...        0 min,  0.001 sec
     gradient                   ...        0 min,  0.000 sec
 * total energy  :   -13.5839170 Eh     change       -0.2541326E-04 Eh
   gradient norm :     0.0015839 Eh/α   predicted     0.0000000E+00 (-100.00%)
   displ. norm   :     0.0627289 α      lambda       -0.2662019E-04
   maximum displ.:     0.0482535 α      in ANC's #1, #2, #4, ...

........................................................................
.............................. CYCLE   22 ..............................
........................................................................

 iter      E             dE          RMSdq      gap      omega  full diag
   1    -13.6179679 -0.136180E+02  0.838E-02    5.50       0.0  T
   2    -13.6179683 -0.469739E-06  0.519E-02    5.50       1.0  T
   3    -13.6179679  0.375499E-06  0.148E-02    5.50       3.0  T
   4    -13.6179687 -0.763643E-06  0.652E-03    5.50       6.9  T
   5    -13.6179687 -0.331709E-07  0.504E-03    5.50       8.9  T
   6    -13.6179688 -0.458356E-07  0.174E-03    5.50      25.7  T
   7    -13.6179688 -0.338368E-08  0.316E-04    5.50     141.5  T
   8    -13.6179688 -0.126214E-09  0.238E-04    5.50     188.0  T
     SCC iter.                  ...        0 min,  0.001 sec
     gradient                   ...        0 min,  0.000 sec
 * total energy  :   -13.5839302 Eh     change       -0.1322833E-04 Eh
   gradient norm :     0.0012061 Eh/α   predicted    -0.1333493E-04 (   0.81%)
   displ. norm   :     0.0550146 α      lambda       -0.1966680E-04
   maximum displ.:     0.0359772 α      in ANC's #2, #4, #1, ...

........................................................................
.............................. CYCLE   23 ..............................
........................................................................

 iter      E             dE          RMSdq      gap      omega  full diag
   1    -13.6181141 -0.136181E+02  0.561E-02    5.50       0.0  T
   2    -13.6181142 -0.683264E-07  0.343E-02    5.50       1.3  T
   3    -13.6181142  0.266691E-07  0.450E-03    5.50       9.9  T
   4    -13.6181143 -0.841967E-07  0.202E-03    5.50      22.2  T
   5    -13.6181143 -0.383013E-08  0.144E-03    5.50      31.0  T
   6    -13.6181143 -0.417933E-08  0.797E-04    5.50      56.1  T
   7    -13.6181143 -0.150568E-08  0.247E-04    5.50     180.8  T
     SCC iter.                  ...        0 min,  0.001 sec
     gradient                   ...        0 min,  0.000 sec
 * total energy  :   -13.5839482 Eh     change       -0.1804317E-04 Eh
   gradient norm :     0.0009384 Eh/α   predicted    -0.9847844E-05 ( -45.42%)
   displ. norm   :     0.0639621 α      lambda       -0.9125333E-05
   maximum displ.:     0.0518609 α      in ANC's #1, #2, #4, ...

........................................................................
.............................. CYCLE   24 ..............................
........................................................................

 iter      E             dE          RMSdq      gap      omega  full diag
   1    -13.6179268 -0.136179E+02  0.788E-02    5.50       0.0  T
   2    -13.6179270 -0.128016E-06  0.476E-02    5.50       1.0  T
   3    -13.6179266  0.337063E-06  0.110E-02    5.50       4.1  T
   4    -13.6179271 -0.495411E-06  0.371E-03    5.50      12.0  T
   5    -13.6179271 -0.238263E-07  0.128E-03    5.50      34.9  T
   6    -13.6179271 -0.118560E-08  0.638E-04    5.50      70.1  T
   7    -13.6179271 -0.249097E-09  0.166E-04    5.50     268.7  T
     SCC iter.                  ...        0 min,  0.001 sec
     gradient                   ...        0 min,  0.000 sec
 * total energy  :   -13.5839589 Eh     change       -0.1068011E-04 Eh
   gradient norm :     0.0011646 Eh/α   predicted    -0.4570481E-05 ( -57.21%)
   displ. norm   :     0.1242561 α      lambda       -0.1367528E-04
   maximum displ.:     0.1065079 α      in ANC's #1, #2, #4, ...

........................................................................
.............................. CYCLE   25 ..............................
........................................................................

 iter      E             dE          RMSdq      gap      omega  full diag
   1    -13.6175702 -0.136176E+02  0.163E-01    5.49       0.0  T
   2    -13.6175711 -0.916907E-06  0.980E-02    5.49       1.0  T
   3    -13.6175650  0.618195E-05  0.428E-02    5.50       1.0  T
   4    -13.6175726 -0.762355E-05  0.892E-03    5.49       5.0  T
   5    -13.6175727 -0.103046E-06  0.484E-03    5.50       9.2  T
   6    -13.6175727 -0.452865E-07  0.208E-03    5.50      21.5  T
   7    -13.6175727 -0.285894E-08  0.709E-04    5.50      63.1  T
   8    -13.6175727 -0.763391E-09  0.380E-04    5.50     117.6  T
     SCC iter.                  ...        0 min,  0.001 sec
     gradient                   ...        0 min,  0.000 sec
 * total energy  :   -13.5839685 Eh     change       -0.9610179E-05 Eh
   gradient norm :     0.0033422 Eh/α   predicted    -0.6883501E-05 ( -28.37%)
   displ. norm   :     0.0075570 α      lambda       -0.8557334E-05
   maximum displ.:     0.0060648 α      in ANC's #4, #2, #1, ...

........................................................................
.............................. CYCLE   26 ..............................
........................................................................

 iter      E             dE          RMSdq      gap      omega  full diag
   1    -13.6178394 -0.136178E+02  0.118E-02    5.50       0.0  T
   2    -13.6178394 -0.534992E-07  0.756E-03    5.50       5.9  T
   3    -13.6178395 -0.879833E-07  0.493E-03    5.50       9.1  T
   4    -13.6178396 -0.317612E-07  0.768E-04    5.50      58.2  T
   5    -13.6178396 -0.475188E-09  0.580E-04    5.50      77.1  T
     SCC iter.                  ...        0 min,  0.001 sec
     gradient                   ...        0 min,  0.000 sec
 * total energy  :   -13.5839750 Eh     change       -0.6518913E-05 Eh
   gradient norm :     0.0017727 Eh/α   predicted    -0.4278608E-05 ( -34.37%)
   displ. norm   :     0.0646622 α      lambda       -0.1072704E-04
   maximum displ.:     0.0585120 α      in ANC's #1, #2, #4, ...

........................................................................
.............................. CYCLE   27 ..............................
........................................................................

 iter      E             dE          RMSdq      gap      omega  full diag
   1    -13.6182103 -0.136182E+02  0.896E-02    5.50       0.0  T
   2    -13.6182106 -0.303210E-06  0.556E-02    5.50       1.0  T
   3    -13.6182092  0.140437E-05  0.200E-02    5.50       2.2  T
   4    -13.6182110 -0.182265E-05  0.573E-03    5.50       7.8  T
   5    -13.6182111 -0.481299E-07  0.238E-03    5.50      18.8  T
   6    -13.6182111 -0.867027E-08  0.135E-03    5.50      33.1  T
   7    -13.6182111 -0.145764E-08  0.274E-04    5.50     163.0  T
   8    -13.6182111 -0.882672E-10  0.173E-04    5.50     259.0  T
     SCC iter.                  ...        0 min,  0.001 sec
     gradient                   ...        0 min,  0.000 sec
 * total energy  :   -13.5839845 Eh     change       -0.9502850E-05 Eh
   gradient norm :     0.0008095 Eh/α   predicted    -0.5373222E-05 ( -43.46%)
   displ. norm   :     0.0857066 α      lambda       -0.4833742E-05
   maximum displ.:     0.0773548 α      in ANC's #1, #2, #6, ...

........................................................................
.............................. CYCLE   28 ..............................
........................................................................

 iter      E             dE          RMSdq      gap      omega  full diag
   1    -13.6179132 -0.136179E+02  0.111E-01    5.50       0.0  T
   2    -13.6179137 -0.427919E-06  0.672E-02    5.50       1.0  T
   3    -13.6179113  0.238547E-05  0.267E-02    5.50       1.7  T
   4    -13.6179143 -0.300892E-05  0.638E-03    5.50       7.0  T
   5    -13.6179143 -0.560789E-07  0.306E-03    5.50      14.6  T
   6    -13.6179144 -0.166996E-07  0.150E-03    5.50      29.7  T
   7    -13.6179144 -0.154273E-08  0.391E-04    5.50     114.4  T
   8    -13.6179144 -0.186981E-09  0.204E-04    5.50     218.9  T
     SCC iter.                  ...        0 min,  0.001 sec
     gradient                   ...        0 min,  0.000 sec
 * total energy  :   -13.5839871 Eh     change       -0.2548187E-05 Eh
   gradient norm :     0.0022500 Eh/α   predicted    -0.2424231E-05 (  -4.86%)
   displ. norm   :     0.0063104 α      lambda       -0.4252665E-05
   maximum displ.:     0.0045163 α      in ANC's #3, #5, #4, ...

........................................................................
.............................. CYCLE   29 ..............................
........................................................................

 iter      E             dE          RMSdq      gap      omega  full diag
   1    -13.6180391 -0.136180E+02  0.115E-02    5.50       0.0  T
   2    -13.6180392 -0.103866E-06  0.902E-03    5.50       5.0  T
   3    -13.6180394 -0.203539E-06  0.469E-03    5.50       9.5  T
   4    -13.6180394 -0.120867E-07  0.137E-03    5.50      32.7  T
   5    -13.6180394 -0.227345E-08  0.109E-03    5.50      41.1  T
   6    -13.6180394 -0.335811E-08  0.563E-04    5.50      79.5  T
   7    -13.6180394 -0.124637E-08  0.111E-04    5.50     401.8  T
     SCC iter.                  ...        0 min,  0.001 sec
     gradient                   ...        0 min,  0.000 sec
 * total energy  :   -13.5839902 Eh     change       -0.3094766E-05 Eh
   gradient norm :     0.0010211 Eh/α   predicted    -0.2126701E-05 ( -31.28%)
   displ. norm   :     0.0454420 α      lambda       -0.2870490E-05
   maximum displ.:     0.0397703 α      in ANC's #1, #2, #3, ...

........................................................................
.............................. CYCLE   30 ..............................
........................................................................

 iter      E             dE          RMSdq      gap      omega  full diag
   1    -13.6181117 -0.136181E+02  0.536E-02    5.51       0.0  T
   2    -13.6181119 -0.196261E-06  0.341E-02    5.51       1.3  T
   3    -13.6181107  0.115976E-05  0.189E-02    5.51       2.4  T
   4    -13.6181122 -0.150190E-05  0.325E-03    5.51      13.8  T
   5    -13.6181122 -0.958681E-08  0.245E-03    5.51      18.3  T
   6    -13.6181123 -0.130649E-07  0.103E-03    5.51      43.6  T
   7    -13.6181123 -0.187398E-08  0.364E-04    5.51     122.9  T
   8    -13.6181123 -0.216854E-09  0.289E-04    5.51     154.9  T
     SCC iter.                  ...        0 min,  0.001 sec
     gradient                   ...        0 min,  0.000 sec
 * total energy  :   -13.5839922 Eh     change       -0.2042790E-05 Eh
   gradient norm :     0.0005331 Eh/α   predicted    -0.1437817E-05 ( -29.62%)
   displ. norm   :     0.0280508 α      lambda       -0.6365509E-06
   maximum displ.:     0.0252652 α      in ANC's #1, #2, #3, ...

   *** GEOMETRY OPTIMIZATION CONVERGED AFTER 30 ITERATIONS ***

------------------------------------------------------------------------
 total energy gain   :        -0.0267741 Eh      -16.8010 kcal/mol
 total RMSD          :         0.6450519 a0        0.3413 Å
 total power (kW/mol):        -2.3431822 (step)-1211.7847 (real)
------------------------------------------------------------------------

 ANCopt (total)                0 d,  0 h,  0 min,  0.058 sec
 optimizer setup                ...        0 min,  0.000 sec (  0.214%)
 model hessian                  ...        0 min,  0.000 sec (  0.488%)
 ANC generation                 ...        0 min,  0.000 sec (  0.260%)
 coordinate transformation      ...        0 min,  0.000 sec (  0.387%)
 single point calculation       ...        0 min,  0.054 sec ( 92.690%)
 optimization log               ...        0 min,  0.001 sec (  1.571%)
 hessian update                 ...        0 min,  0.000 sec (  0.585%)
 rational function              ...        0 min,  0.001 sec (  1.560%)

================
 final structure:
================
5
 xtb: 6.6.1 (8d0f1dd)
O           -1.03760977873525        6.44923854351006        1.53891403474075
Cl          -1.24281807014825        6.21364909736251        0.00472238417529
H           -0.70330031108845        5.18741653246049        2.67106077714057
O           -0.51819880942289        4.52208675986506        3.36482892940415
H           -0.48948416047437        4.99327242871603        4.20092807359430
 
 Bond Distances (Angstroems)
 ---------------------------
O1-Cl2=1.5657        Cl2-O1=1.5657        H3-O4=0.9789         O4-H3=0.9789         O4-H5=0.9602         H5-O4=0.9602         
 O  H  Rav=0.9695 sigma=0.0094  Rmin=0.9602  Rmax=0.9789     2
 Cl O  Rav=1.5657 sigma=0.0000  Rmin=1.5657  Rmax=1.5657     1
 
 selected bond angles (degree)
 --------------------
H5-O4-H3=106.81                
 
 selected dihedral angles (degree)
 ---------------------------------

 
 CMA Distance (Angstroems)
 ---------------------------
R(CMA):  3.4243
           -------------------------------------------------
          |                Final Singlepoint                |
           -------------------------------------------------

          ...................................................
          :                      SETUP                      :
          :.................................................:
          :  # basis functions                  20          :
          :  # atomic orbitals                  19          :
          :  # shells                            9          :
          :  # electrons                        21          :
          :  max. iterations                   800          :
          :  Hamiltonian                  GFN2-xTB          :
          :  restarted?                      false          :
          :  GBSA solvation                  false          :
          :  PC potential                    false          :
          :  electronic temp.         6000.0000000     K    :
          :  accuracy                    1.0000000          :
          :  -> integral cutoff          0.2500000E+02      :
          :  -> integral neglect         0.1000000E-07      :
          :  -> SCF convergence          0.1000000E-05 Eh   :
          :  -> wf. convergence          0.1000000E-03 e    :
          :  Broyden damping             0.4000000          :
          ...................................................

 iter      E             dE          RMSdq      gap      omega  full diag
   1    -13.6181123 -0.136181E+02  0.112E-04    5.51       0.0  T
   2    -13.6181123 -0.878764E-11  0.881E-05    5.51     507.7  T
   3    -13.6181123 -0.138964E-10  0.589E-05    5.51     759.5  T

   *** convergence criteria satisfied after 3 iterations ***

         #    Occupation            Energy/Eh            Energy/eV
      -------------------------------------------------------------
         1        2.0000           -1.0959753             -29.8230
       ...           ...                  ...                  ...
         5        1.9994           -0.5682580             -15.4631
         6        1.9982           -0.5454841             -14.8434
         7        1.9981           -0.5445061             -14.8168
         8        1.9923           -0.5180608             -14.0972
         9        1.8617           -0.4604685             -12.5300
        10        1.5717           -0.4313285             -11.7370
        11        1.5714           -0.4313070             -11.7365 (HOMO)
        12        0.0072           -0.2288018              -6.2260 (LUMO)
        13        0.0000           -0.0417413              -1.1358
        14        0.0000           -0.0417200              -1.1353
        15        0.0000           -0.0190630              -0.5187
        16        0.0000           -0.0176108              -0.4792
       ...           ...                  ...                  ...
        19                          0.2843010               7.7362
      -------------------------------------------------------------
                  HL-Gap            0.2025052 Eh            5.5104 eV
             Fermi-level           -0.3739904 Eh          -10.1768 eV

 SCC (total)                   0 d,  0 h,  0 min,  0.001 sec
 SCC setup                      ...        0 min,  0.000 sec (  4.640%)
 Dispersion                     ...        0 min,  0.000 sec (  1.841%)
 classical contributions        ...        0 min,  0.000 sec (  0.939%)
 integral evaluation            ...        0 min,  0.000 sec ( 17.603%)
 iterations                     ...        0 min,  0.000 sec ( 37.691%)
 molecular gradient             ...        0 min,  0.000 sec ( 26.791%)
 printout                       ...        0 min,  0.000 sec (  7.641%)

         :::::::::::::::::::::::::::::::::::::::::::::::::::::
         ::                     SUMMARY                     ::
         :::::::::::::::::::::::::::::::::::::::::::::::::::::
         :: total energy             -13.583992226072 Eh    ::
         :: gradient norm              0.000532094264 Eh/a0 ::
         :: HOMO-LUMO gap              5.510446077239 eV    ::
         ::.................................................::
         :: SCC energy               -13.618112261750 Eh    ::
         :: -> isotropic ES            0.043618146819 Eh    ::
         :: -> anisotropic ES         -0.003857065497 Eh    ::
         :: -> anisotropic XC         -0.004605794774 Eh    ::
         :: -> dispersion             -0.001332302050 Eh    ::
         :: repulsion energy           0.034120245859 Eh    ::
         :: add. restraining           0.000000000000 Eh    ::
         :: total charge               0.000000000011 e     ::
         :::::::::::::::::::::::::::::::::::::::::::::::::::::

           -------------------------------------------------
          |                Property Printout                |
           -------------------------------------------------

    * Orbital Energies and Occupations

         #    Occupation            Energy/Eh            Energy/eV
      -------------------------------------------------------------
         1        2.0000           -1.0959753             -29.8230
         2        2.0000           -0.6927876             -18.8517
         3        2.0000           -0.6873863             -18.7047
         4        1.9998           -0.5885280             -16.0147
         5        1.9994           -0.5682580             -15.4631
         6        1.9982           -0.5454841             -14.8434
         7        1.9981           -0.5445061             -14.8168
         8        1.9923           -0.5180608             -14.0972
         9        1.8617           -0.4604685             -12.5300
        10        1.5717           -0.4313285             -11.7370
        11        1.5714           -0.4313070             -11.7365 (HOMO)
        12        0.0072           -0.2288018              -6.2260 (LUMO)
        13        0.0000           -0.0417413              -1.1358
        14        0.0000           -0.0417200              -1.1353
        15        0.0000           -0.0190630              -0.5187
        16        0.0000           -0.0176108              -0.4792
        17                          0.0931163               2.5338
        18                          0.2101757               5.7192
        19                          0.2843010               7.7362
      -------------------------------------------------------------
                  HL-Gap            0.2025052 Eh            5.5104 eV
             Fermi-level           -0.3739904 Eh          -10.1768 eV

     #   Z          covCN         q      C6AA      α(0)
     1   8 O        0.939    -0.367    21.002     6.146
     2  17 Cl       0.939     0.244    92.180    14.688
     3   1 H        0.803     0.337     0.620     1.237
     4   8 O        1.608    -0.515    23.233     6.505
     5   1 H        0.805     0.301     0.717     1.330

 Mol. C6AA /au·bohr⁶  :        423.153781
 Mol. C8AA /au·bohr⁸  :      12014.010623
 Mol. α(0) /au        :         29.906967


Wiberg/Mayer (AO) data.
largest (>0.10) Wiberg bond orders for each atom

 ---------------------------------------------------------------------------
     #   Z sym  total        # sym  WBO       # sym  WBO       # sym  WBO
 ---------------------------------------------------------------------------
     1   8 O    1.348 --     2 Cl   1.275
     2  17 Cl   1.286 --     1 O    1.275
     3   1 H    0.885 --     4 O    0.828
     4   8 O    1.763 --     5 H    0.908     3 H    0.828
     5   1 H    0.908 --     4 O    0.908
 ---------------------------------------------------------------------------

Topologies differ in total number of bonds
Writing topology from bond orders to xtbtopo.mol

molecular dipole:
                 x           y           z       tot (Debye)
 q only:       -0.075       0.133      -0.245
   full:       -0.123       0.379      -0.310       1.283
molecular quadrupole (traceless):
                xx          xy          yy          xz          yz          zz
 q only:       -1.870      -0.982      -1.315       1.231      -2.570       3.185
  q+dip:       -3.709      -2.150       3.277       1.040      -2.013       0.432
   full:       -4.179      -2.148       2.945       1.208      -1.840       1.234

           -------------------------------------------------
          |                Geometry Summary                 |
           -------------------------------------------------

      molecular mass/u    :       69.4676289
   center of mass at/Å    :       -1.0099067       5.8457207       1.2315226
  moments of inertia/u·Å² :        0.1020321E+02   0.1744561E+03   0.1846564E+03
rotational constants/cm⁻¹ :        0.1652188E+01   0.9662964E-01   0.9129188E-01

 * 2 selected distances

     #   Z          #   Z                                           value/Å
     3   1 H        4   8 O                                       0.9788977 (max)
     4   8 O        5   1 H                                       0.9601575 (min)

 * 1 distinct bonds (by element types)

   Z      Z             #   av. dist./Å        max./Å        min./Å
   1 H    8 O           2     0.9695276     0.9788977     0.9601575


optimized geometry written to: xtbopt.xyz


           -------------------------------------------------
          | TOTAL ENERGY              -13.583992226072 Eh   |
          | GRADIENT NORM               0.000532094264 Eh/α |
          | HOMO-LUMO GAP               5.510446077239 eV   |
           -------------------------------------------------

------------------------------------------------------------------------
 * finished run on 2025/04/07 at 09:40:51.347     
------------------------------------------------------------------------
 total:
 * wall-time:     0 d,  0 h,  0 min,  0.157 sec
 *  cpu-time:     0 d,  0 h,  0 min,  0.730 sec
 * ratio c/w:     4.646 speedup
 SCF:
 * wall-time:     0 d,  0 h,  0 min,  0.023 sec
 *  cpu-time:     0 d,  0 h,  0 min,  0.171 sec
 * ratio c/w:     7.523 speedup
 ANC optimizer:
 * wall-time:     0 d,  0 h,  0 min,  0.060 sec
 *  cpu-time:     0 d,  0 h,  0 min,  0.483 sec
 * ratio c/w:     7.996 speedup

