      -----------------------------------------------------------      
     |                   =====================                   |     
     |                           x T B                           |     
     |                   =====================                   |     
     |                         S. Grimme                         |     
     |          Mulliken Center for Theoretical Chemistry        |     
     |                    University of Bonn                     |     
      -----------------------------------------------------------      

   * xtb version 6.6.1 (8d0f1dd) compiled by 'stahn@M-Bot' on 2023-08-01

   xtb is free software: you can redistribute it and/or modify it under
   the terms of the GNU Lesser General Public License as published by
   the Free Software Foundation, either version 3 of the License, or
   (at your option) any later version.
   
   xtb is distributed in the hope that it will be useful,
   but WITHOUT ANY WARRANTY; without even the implied warranty of
   MERCHANTABILITY or FITNESS FOR A PARTICULAR PURPOSE.  See the
   GNU Lesser General Public License for more details.
   
   Cite this work as:
   * C. Bannwarth, E. Caldeweyher, S. Ehlert, A. Hansen, P. Pracht,
     J. Seibert, S. Spicher, S. Grimme, WIREs Comput. Mol. Sci., 2020, 11,
     e01493. DOI: 10.1002/wcms.1493
   
   for GFN2-xTB:
   * C. Bannwarth, S. Ehlert and S. Grimme., J. Chem. Theory Comput., 2019,
     15, 1652-1671. DOI: 10.1021/acs.jctc.8b01176
   for GFN1-xTB:
   * S. Grimme, C. Bannwarth, P. Shushkov, J. Chem. Theory Comput., 2017,
     13, 1989-2009. DOI: 10.1021/acs.jctc.7b00118
   for GFN0-xTB:
   * P. Pracht, E. Caldeweyher, S. Ehlert, S. Grimme, ChemRxiv, 2019, preprint.
     DOI: 10.26434/chemrxiv.8326202.v1
   for GFN-FF:
   * S. Spicher and S. Grimme, Angew. Chem. Int. Ed., 2020, 59, 15665-15673.
     DOI: 10.1002/anie.202004239
   
   for ALPB and GBSA implicit solvation:
   * S. Ehlert, M. Stahn, S. Spicher, S. Grimme, J. Chem. Theory Comput.,
     2021, 17, 4250-4261. DOI: 10.1021/acs.jctc.1c00471
   
   for DFT-D4:
   * E. Caldeweyher, C. Bannwarth and S. Grimme, J. Chem. Phys., 2017,
     147, 034112. DOI: 10.1063/1.4993215
   * E. Caldeweyher, S. Ehlert, A. Hansen, H. Neugebauer, S. Spicher,
     C. Bannwarth and S. Grimme, J. Chem. Phys., 2019, 150, 154122.
     DOI: 10.1063/1.5090222
   * E. Caldeweyher, J.-M. Mewes, S. Ehlert and S. Grimme, Phys. Chem. Chem. Phys.
     2020, 22, 8499-8512. DOI: 10.1039/D0CP00502A
   
   for sTDA-xTB:
   * S. Grimme and C. Bannwarth, J. Chem. Phys., 2016, 145, 054103.
     DOI: 10.1063/1.4959605
   
   in the mass-spec context:
   * V. Asgeirsson, C. Bauer and S. Grimme, Chem. Sci., 2017, 8, 4879.
     DOI: 10.1039/c7sc00601b
   * J. Koopman and S. Grimme, ACS Omega 2019, 4, 12, 15120-15133.
     DOI: 10.1021/acsomega.9b02011
   
   for metadynamics refer to:
   * S. Grimme, J. Chem. Theory Comput., 2019, 155, 2847-2862
     DOI: 10.1021/acs.jctc.9b00143
   
   for SPH calculations refer to:
   * S. Spicher and S. Grimme, J. Chem. Theory Comput., 2021, 17, 1701-1714
     DOI: 10.1021/acs.jctc.0c01306
   
   with help from (in alphabetical order)
   P. Atkinson, C. Bannwarth, F. Bohle, G. Brandenburg, E. Caldeweyher
   M. Checinski, S. Dohm, S. Ehlert, S. Ehrlich, I. Gerasimov, C. Hölzer
   A. Katbashev, J. Koopman, C. Lavigne, S. Lehtola, F. März, M. Müller,
   F. Musil, H. Neugebauer, J. Pisarek, C. Plett, P. Pracht, F. Pultar,
   J. Seibert, P. Shushkov, S. Spicher, M. Stahn, M. Steiner, T. Strunk,
   J. Stückrath, T. Rose, and J. Unsleber
   
 * started run on 2025/04/07 at 09:40:51.360     

           -------------------------------------------------
          |                Calculation Setup                |
           -------------------------------------------------

          program call               : xtb 539.xyz --input 539.inp --opt
          hostname                   : serv11
          coordinate file            : 539.xyz
          omp threads                :                     8

   ID    Z sym.   atoms
    1    8 O      1, 4
    2   17 Cl     2
    3    1 H      3, 5

molecular fragmentation (1/2 indicates fragments):
11222
# atoms in fragment 1/2:     2     3
 fragment masses (1/2) :       51.45       18.02
CMA distance (Bohr)    :   5.551
constraining FC (au)   :  0.0500

           -------------------------------------------------
          |                 G F N 2 - x T B                 |
           -------------------------------------------------

        Reference                      10.1021/acs.jctc.8b01176
      * Hamiltonian:
        H0-scaling (s, p, d)           1.850000    2.230000    2.230000
        zeta-weighting                 0.500000
      * Dispersion:
        s8                             2.700000
        a1                             0.520000
        a2                             5.000000
        s9                             5.000000
      * Repulsion:
        kExp                           1.500000    1.000000
        rExp                           1.000000
      * Coulomb:
        alpha                          2.000000
        third order                    shell-resolved
        anisotropic                    true
        a3                             3.000000
        a5                             4.000000
        cn-shift                       1.200000
        cn-exp                         4.000000
        max-rad                        5.000000

q/qsh data taken from xtbrestart
CAMM data taken from xtbrestart

          ...................................................
          :                      SETUP                      :
          :.................................................:
          :  # basis functions                  20          :
          :  # atomic orbitals                  19          :
          :  # shells                            9          :
          :  # electrons                        21          :
          :  max. iterations                   800          :
          :  Hamiltonian                  GFN2-xTB          :
          :  restarted?                       true          :
          :  GBSA solvation                  false          :
          :  PC potential                    false          :
          :  electronic temp.         6000.0000000     K    :
          :  accuracy                    1.0000000          :
          :  -> integral cutoff          0.2500000E+02      :
          :  -> integral neglect         0.1000000E-07      :
          :  -> SCF convergence          0.1000000E-05 Eh   :
          :  -> wf. convergence          0.1000000E-03 e    :
          :  Broyden damping             0.4000000          :
          ...................................................

 iter      E             dE          RMSdq      gap      omega  full diag
   1    -13.5732391 -0.135732E+02  0.552E+00    5.43       0.0  T
   2    -13.5779430 -0.470392E-02  0.362E+00    5.51       1.0  T
   3    -13.5725012  0.544180E-02  0.144E+00    5.38       1.0  T
   4    -13.5814513 -0.895010E-02  0.408E-01    5.49       1.0  T
   5    -13.5816413 -0.189939E-03  0.289E-01    5.48       1.0  T
   6    -13.5816687 -0.274126E-04  0.177E-01    5.49       1.0  T
   7    -13.5817062 -0.375384E-04  0.140E-01    5.49       1.0  T
   8    -13.5817718 -0.655433E-04  0.308E-02    5.49       1.4  T
   9    -13.5817730 -0.124397E-05  0.105E-02    5.49       4.3  T
  10    -13.5817733 -0.290544E-06  0.509E-03    5.49       8.8  T
  11    -13.5817733 -0.273528E-07  0.486E-03    5.49       9.2  T
  12    -13.5817734 -0.863422E-07  0.125E-03    5.49      35.8  T
  13    -13.5817734  0.645024E-08  0.162E-03    5.49      27.5  T
  14    -13.5817734 -0.115142E-07  0.325E-04    5.49     137.7  T
  15    -13.5817734 -0.453390E-09  0.734E-05    5.49     609.0  T

   *** convergence criteria satisfied after 15 iterations ***

         #    Occupation            Energy/Eh            Energy/eV
      -------------------------------------------------------------
         1        2.0000           -1.0990746             -29.9073
       ...           ...                  ...                  ...
         5        1.9995           -0.5704622             -15.5231
         6        1.9986           -0.5511139             -14.9966
         7        1.9981           -0.5457448             -14.8505
         8        1.9916           -0.5173717             -14.0784
         9        1.8758           -0.4639607             -12.6250
        10        1.5743           -0.4326631             -11.7734
        11        1.5553           -0.4312169             -11.7340 (HOMO)
        12        0.0072           -0.2292830              -6.2391 (LUMO)
        13        0.0000           -0.0710795              -1.9342
        14        0.0000           -0.0457313              -1.2444
        15        0.0000           -0.0405893              -1.1045
        16        0.0000           -0.0203351              -0.5533
       ...           ...                  ...                  ...
        19                          0.2187381               5.9522
      -------------------------------------------------------------
                  HL-Gap            0.2019339 Eh            5.4949 eV
             Fermi-level           -0.3749024 Eh          -10.2016 eV

 SCC (total)                   0 d,  0 h,  0 min,  0.029 sec
 SCC setup                      ...        0 min,  0.000 sec (  0.718%)
 Dispersion                     ...        0 min,  0.000 sec (  0.412%)
 classical contributions        ...        0 min,  0.000 sec (  0.208%)
 integral evaluation            ...        0 min,  0.024 sec ( 80.153%)
 iterations                     ...        0 min,  0.005 sec ( 16.103%)
 molecular gradient             ...        0 min,  0.001 sec (  1.732%)
 printout                       ...        0 min,  0.000 sec (  0.497%)

         :::::::::::::::::::::::::::::::::::::::::::::::::::::
         ::                     SUMMARY                     ::
         :::::::::::::::::::::::::::::::::::::::::::::::::::::
         :: total energy             -13.563776899562 Eh    ::
         :: gradient norm              0.102843639511 Eh/a0 ::
         :: HOMO-LUMO gap              5.494901318743 eV    ::
         ::.................................................::
         :: SCC energy               -13.581773429738 Eh    ::
         :: -> isotropic ES            0.045489293825 Eh    ::
         :: -> anisotropic ES         -0.000990087189 Eh    ::
         :: -> anisotropic XC         -0.003649017540 Eh    ::
         :: -> dispersion             -0.001492189826 Eh    ::
         :: repulsion energy           0.017996410526 Eh    ::
         :: add. restraining           0.000000000000 Eh    ::
         :: total charge               0.000000000004 e     ::
         :::::::::::::::::::::::::::::::::::::::::::::::::::::

      ----------------------------------------------------------- 
     |                   =====================                   |
     |                        A N C O P T                        |
     |                   =====================                   |
     |               Approximate Normal Coordinate               |
     |                Rational Function Optimizer                |
      ----------------------------------------------------------- 

          ...................................................
          :                      SETUP                      :
          :.................................................:
          :   optimization level            normal          :
          :   max. optcycles                   200          :
          :   ANC micro-cycles                  20          :
          :   degrees of freedom                 9          :
          :.................................................:
          :   RF solver                   davidson          :
          :   write xtbopt.log                true          :
          :   linear?                        false          :
          :   energy convergence         0.5000000E-05 Eh   :
          :   grad. convergence          0.1000000E-02 Eh/α :
          :   maxmium RF displ.          1.0000000          :
          :   Hlow (freq-cutoff)         0.1000000E-01      :
          :   Hmax (freq-cutoff)         5.0000000          :
          :   S6 in model hess.         20.0000000          :
          ...................................................

generating ANC from model Hessian ...
Using Lindh-Hessian (1995)
 Shifting diagonal of input Hessian by   1.526559061042675E-002
 Lowest  eigenvalues of input Hessian
    0.010000    0.014691    0.000000    0.000000    0.000000    0.000000
    0.000000    0.000000    0.015860    0.016499    0.017502    0.170465
    0.817106    1.188310    1.777465
 Highest eigenvalues
    0.016499    0.017502    0.170465    0.817106    1.188310    1.777465
 

........................................................................
.............................. CYCLE    1 ..............................
........................................................................

 iter      E             dE          RMSdq      gap      omega  full diag
   1    -13.5817734 -0.135818E+02  0.180E-05    5.49       0.0  T
   2    -13.5817734 -0.458300E-12  0.131E-05    5.49    3401.0  T
   3    -13.5817734 -0.580869E-12  0.760E-06    5.49    5888.2  T
     SCC iter.                  ...        0 min,  0.002 sec
     gradient                   ...        0 min,  0.000 sec
 * total energy  :   -13.5637769 Eh     change       -0.2512301E-10 Eh
   gradient norm :     0.1028436 Eh/α   predicted     0.0000000E+00 (-100.00%)
   displ. norm   :     0.2755448 α      lambda       -0.1714617E-01
   maximum displ.:     0.1518778 α      in ANC's #6, #2, #1, ...

........................................................................
.............................. CYCLE    2 ..............................
........................................................................

 iter      E             dE          RMSdq      gap      omega  full diag
   1    -13.6042552 -0.136043E+02  0.527E-01    5.49       0.0  T
   2    -13.6043165 -0.613584E-04  0.290E-01    5.49       1.0  T
   3    -13.6042841  0.324634E-04  0.191E-01    5.49       1.0  T
   4    -13.6043596 -0.755623E-04  0.431E-02    5.49       1.0  T
   5    -13.6043616 -0.197780E-05  0.328E-02    5.49       1.4  T
   6    -13.6043634 -0.177169E-05  0.142E-02    5.49       3.1  T
   7    -13.6043637 -0.347637E-06  0.594E-03    5.50       7.5  T
   8    -13.6043638 -0.673170E-07  0.364E-03    5.50      12.3  T
   9    -13.6043638 -0.306625E-07  0.191E-03    5.50      23.4  T
  10    -13.6043638 -0.127773E-07  0.464E-04    5.50      96.3  T
  11    -13.6043638 -0.536462E-09  0.129E-04    5.50     347.9  T
     SCC iter.                  ...        0 min,  0.001 sec
     gradient                   ...        0 min,  0.000 sec
 * total energy  :   -13.5765838 Eh     change       -0.1280690E-01 Eh
   gradient norm :     0.0505925 Eh/α   predicted    -0.9223996E-02 ( -27.98%)
   displ. norm   :     0.2978358 α      lambda       -0.7519147E-02
   maximum displ.:     0.1971356 α      in ANC's #4, #2, #7, ...

........................................................................
.............................. CYCLE    3 ..............................
........................................................................

 iter      E             dE          RMSdq      gap      omega  full diag
   1    -13.6209426 -0.136209E+02  0.545E-01    5.40       0.0  T
   2    -13.6209634 -0.208284E-04  0.327E-01    5.41       1.0  T
   3    -13.6209623  0.109759E-05  0.766E-02    5.40       1.0  T
   4    -13.6209786 -0.162920E-04  0.357E-02    5.41       1.3  T
   5    -13.6209800 -0.142284E-05  0.178E-02    5.41       2.5  T
   6    -13.6209805 -0.410571E-06  0.134E-02    5.41       3.3  T
   7    -13.6209810 -0.519072E-06  0.720E-03    5.41       6.2  T
   8    -13.6209811 -0.132647E-06  0.362E-03    5.41      12.3  T
   9    -13.6209811 -0.349080E-07  0.177E-03    5.42      25.3  T
  10    -13.6209812 -0.793545E-08  0.369E-04    5.42     121.1  T
  11    -13.6209812 -0.163965E-09  0.566E-05    5.42     789.6  T
     SCC iter.                  ...        0 min,  0.001 sec
     gradient                   ...        0 min,  0.000 sec
 * total energy  :   -13.5778923 Eh     change       -0.1308532E-02 Eh
   gradient norm :     0.0518856 Eh/α   predicted    -0.4093071E-02 ( 212.80%)
   displ. norm   :     0.1258426 α      lambda       -0.3165021E-02
   maximum displ.:     0.0819836 α      in ANC's #2, #5, #7, ...

........................................................................
.............................. CYCLE    4 ..............................
........................................................................

 iter      E             dE          RMSdq      gap      omega  full diag
   1    -13.6138603 -0.136139E+02  0.257E-01    5.40       0.0  T
   2    -13.6138927 -0.324072E-04  0.126E-01    5.40       1.0  T
   3    -13.6139115 -0.187956E-04  0.108E-01    5.40       1.0  T
   4    -13.6139290 -0.175271E-04  0.172E-02    5.40       2.6  T
   5    -13.6139293 -0.291237E-06  0.111E-02    5.40       4.0  T
   6    -13.6139294 -0.105358E-06  0.445E-03    5.40      10.0  T
   7    -13.6139295 -0.272329E-07  0.208E-03    5.40      21.5  T
   8    -13.6139295 -0.574348E-08  0.101E-03    5.40      44.3  T
   9    -13.6139295 -0.120703E-08  0.185E-04    5.40     242.2  T
  10    -13.6139295 -0.729763E-10  0.115E-04    5.40     390.3  T
     SCC iter.                  ...        0 min,  0.001 sec
     gradient                   ...        0 min,  0.000 sec
 * total energy  :   -13.5794034 Eh     change       -0.1511088E-02 Eh
   gradient norm :     0.0186234 Eh/α   predicted    -0.1607572E-02 (   6.39%)
   displ. norm   :     0.1546530 α      lambda       -0.5428264E-03
   maximum displ.:     0.0934352 α      in ANC's #2, #3, #4, ...

........................................................................
.............................. CYCLE    5 ..............................
........................................................................

 iter      E             dE          RMSdq      gap      omega  full diag
   1    -13.6138196 -0.136138E+02  0.173E-01    5.41       0.0  T
   2    -13.6138238 -0.415189E-05  0.108E-01    5.40       1.0  T
   3    -13.6138238 -0.270112E-07  0.389E-02    5.41       1.2  T
   4    -13.6138268 -0.302925E-05  0.179E-02    5.40       2.5  T
   5    -13.6138270 -0.186096E-06  0.107E-02    5.41       4.2  T
   6    -13.6138273 -0.313223E-06  0.441E-03    5.40      10.1  T
   7    -13.6138274 -0.179597E-07  0.617E-04    5.40      72.5  T
   8    -13.6138274 -0.274820E-09  0.254E-04    5.40     176.2  T
     SCC iter.                  ...        0 min,  0.001 sec
     gradient                   ...        0 min,  0.000 sec
 * total energy  :   -13.5798311 Eh     change       -0.4276624E-03 Eh
   gradient norm :     0.0197930 Eh/α   predicted    -0.2779058E-03 ( -35.02%)
   displ. norm   :     0.3737847 α      lambda       -0.1286371E-02
   maximum displ.:     0.2286212 α      in ANC's #2, #5, #3, ...

........................................................................
.............................. CYCLE    6 ..............................
........................................................................

 iter      E             dE          RMSdq      gap      omega  full diag
   1    -13.6106850 -0.136107E+02  0.380E-01    5.50       0.0  T
   2    -13.6107028 -0.177558E-04  0.235E-01    5.49       1.0  T
   3    -13.6107020  0.817412E-06  0.771E-02    5.50       1.0  T
   4    -13.6107141 -0.121652E-04  0.344E-02    5.49       1.3  T
   5    -13.6107159 -0.174882E-05  0.158E-02    5.49       2.8  T
   6    -13.6107162 -0.301771E-06  0.112E-02    5.49       4.0  T
   7    -13.6107165 -0.338652E-06  0.489E-03    5.48       9.2  T
   8    -13.6107166 -0.442298E-07  0.299E-03    5.48      15.0  T
   9    -13.6107166 -0.200603E-07  0.202E-03    5.48      22.1  T
  10    -13.6107166 -0.138069E-07  0.254E-04    5.48     175.9  T
  11    -13.6107166 -0.587761E-10  0.444E-05    5.48    1006.9  T
     SCC iter.                  ...        0 min,  0.001 sec
     gradient                   ...        0 min,  0.000 sec
 * total energy  :   -13.5805120 Eh     change       -0.6809246E-03 Eh
   gradient norm :     0.0273877 Eh/α   predicted    -0.7330484E-03 (   7.65%)
   displ. norm   :     0.2123813 α      lambda       -0.1316025E-02
   maximum displ.:     0.1553186 α      in ANC's #2, #5, #4, ...

........................................................................
.............................. CYCLE    7 ..............................
........................................................................

 iter      E             dE          RMSdq      gap      omega  full diag
   1    -13.6134009 -0.136134E+02  0.275E-01    5.44       0.0  T
   2    -13.6134104 -0.956427E-05  0.172E-01    5.44       1.0  T
   3    -13.6133886  0.218769E-04  0.988E-02    5.44       1.0  T
   4    -13.6134213 -0.326846E-04  0.160E-02    5.44       2.8  T
   5    -13.6134215 -0.201748E-06  0.122E-02    5.44       3.7  T
   6    -13.6134217 -0.248643E-06  0.638E-03    5.44       7.0  T
   7    -13.6134218 -0.873705E-07  0.277E-03    5.44      16.1  T
   8    -13.6134218 -0.161246E-07  0.157E-03    5.44      28.5  T
   9    -13.6134218 -0.602699E-08  0.943E-04    5.44      47.4  T
  10    -13.6134218 -0.303314E-08  0.147E-04    5.44     304.4  T
     SCC iter.                  ...        0 min,  0.001 sec
     gradient                   ...        0 min,  0.000 sec
 * total energy  :   -13.5814967 Eh     change       -0.9847182E-03 Eh
   gradient norm :     0.0193974 Eh/α   predicted    -0.6876928E-03 ( -30.16%)
   displ. norm   :     0.3132855 α      lambda       -0.1834965E-02
   maximum displ.:     0.2107327 α      in ANC's #5, #1, #2, ...

........................................................................
.............................. CYCLE    8 ..............................
........................................................................

 iter      E             dE          RMSdq      gap      omega  full diag
   1    -13.6163326 -0.136163E+02  0.374E-01    5.62       0.0  T
   2    -13.6163867 -0.540770E-04  0.270E-01    5.62       1.0  T
   3    -13.6164102 -0.234832E-04  0.157E-01    5.62       1.0  T
   4    -13.6164473 -0.371775E-04  0.437E-02    5.61       1.0  T
   5    -13.6164494 -0.212056E-05  0.355E-02    5.61       1.3  T
   6    -13.6164531 -0.368796E-05  0.178E-02    5.60       2.5  T
   7    -13.6164543 -0.112293E-05  0.559E-03    5.60       8.0  T
   8    -13.6164543 -0.785747E-07  0.241E-03    5.60      18.6  T
   9    -13.6164543 -0.703747E-08  0.110E-03    5.60      40.5  T
  10    -13.6164543 -0.201579E-08  0.247E-04    5.60     181.3  T
  11    -13.6164543 -0.418119E-10  0.856E-05    5.60     522.5  T
     SCC iter.                  ...        0 min,  0.001 sec
     gradient                   ...        0 min,  0.000 sec
 * total energy  :   -13.5824396 Eh     change       -0.9428628E-03 Eh
   gradient norm :     0.0137890 Eh/α   predicted    -0.1007533E-02 (   6.86%)
   displ. norm   :     0.5427768 α      lambda       -0.1799529E-02
   maximum displ.:     0.3958580 α      in ANC's #2, #5, #3, ...

........................................................................
.............................. CYCLE    9 ..............................
........................................................................

 iter      E             dE          RMSdq      gap      omega  full diag
   1    -13.6056126 -0.136056E+02  0.898E-01    5.21       0.0  T
   2    -13.6059143 -0.301726E-03  0.668E-01    5.24       1.0  T
   3    -13.6071768 -0.126247E-02  0.350E-01    5.23       1.0  T
   4    -13.6072412 -0.643834E-04  0.790E-02    5.23       1.0  T
   5    -13.6072519 -0.106522E-04  0.612E-02    5.24       1.0  T
   6    -13.6072539 -0.209753E-05  0.492E-02    5.25       1.0  T
   7    -13.6072611 -0.719094E-05  0.252E-02    5.25       1.8  T
   8    -13.6072637 -0.254813E-05  0.137E-02    5.26       3.3  T
   9    -13.6072638 -0.127519E-06  0.116E-02    5.26       3.9  T
  10    -13.6072644 -0.551152E-06  0.539E-03    5.26       8.3  T
  11    -13.6072645 -0.135271E-06  0.306E-04    5.26     146.1  T
  12    -13.6072645 -0.182848E-09  0.633E-05    5.26     706.1  T
     SCC iter.                  ...        0 min,  0.001 sec
     gradient                   ...        0 min,  0.000 sec
 * total energy  :   -13.5812562 Eh     change        0.1183358E-02 Eh
   gradient norm :     0.0401000 Eh/α   predicted    -0.1164844E-02 (-198.44%)
   displ. norm   :     0.3251434 α      lambda       -0.4829541E-02
   maximum displ.:     0.2234782 α      in ANC's #2, #5, #1, ...

........................................................................
.............................. CYCLE   10 ..............................
........................................................................

 iter      E             dE          RMSdq      gap      omega  full diag
   1    -13.6210710 -0.136211E+02  0.528E-01    5.41       0.0  T
   2    -13.6212198 -0.148841E-03  0.284E-01    5.40       1.0  T
   3    -13.6213779 -0.158053E-03  0.221E-01    5.40       1.0  T
   4    -13.6214488 -0.708811E-04  0.326E-02    5.40       1.4  T
   5    -13.6214499 -0.115718E-05  0.241E-02    5.40       1.9  T
   6    -13.6214508 -0.856797E-06  0.124E-02    5.40       3.6  T
   7    -13.6214510 -0.222247E-06  0.916E-03    5.40       4.9  T
   8    -13.6214513 -0.285664E-06  0.330E-03    5.40      13.5  T
   9    -13.6214513 -0.347369E-07  0.174E-03    5.39      25.7  T
  10    -13.6214513 -0.780521E-08  0.612E-04    5.39      73.1  T
  11    -13.6214513 -0.108703E-08  0.173E-04    5.39     259.0  T
     SCC iter.                  ...        0 min,  0.001 sec
     gradient                   ...        0 min,  0.000 sec
 * total energy  :   -13.5824484 Eh     change       -0.1192187E-02 Eh
   gradient norm :     0.0303043 Eh/α   predicted    -0.2670047E-02 ( 123.96%)
   displ. norm   :     0.2903606 α      lambda       -0.3053909E-02
   maximum displ.:     0.1689980 α      in ANC's #2, #5, #4, ...

........................................................................
.............................. CYCLE   11 ..............................
........................................................................

 iter      E             dE          RMSdq      gap      omega  full diag
   1    -13.6138126 -0.136138E+02  0.597E-01    5.74       0.0  T
   2    -13.6140931 -0.280463E-03  0.496E-01    5.74       1.0  T
   3    -13.6143085 -0.215382E-03  0.281E-01    5.74       1.0  T
   4    -13.6143537 -0.452354E-04  0.857E-02    5.73       1.0  T
   5    -13.6143643 -0.106279E-04  0.577E-02    5.72       1.0  T
   6    -13.6143736 -0.922564E-05  0.360E-02    5.71       1.2  T
   7    -13.6143746 -0.105270E-05  0.310E-02    5.70       1.4  T
   8    -13.6143788 -0.421234E-05  0.699E-03    5.70       6.4  T
   9    -13.6143789 -0.856644E-07  0.291E-03    5.70      15.4  T
  10    -13.6143789  0.137620E-07  0.279E-03    5.70      16.0  T
  11    -13.6143789 -0.346351E-07  0.270E-04    5.70     165.4  T
  12    -13.6143789 -0.445795E-10  0.432E-05    5.70    1035.9  T
     SCC iter.                  ...        0 min,  0.001 sec
     gradient                   ...        0 min,  0.000 sec
 * total energy  :   -13.5817510 Eh     change        0.6974061E-03 Eh
   gradient norm :     0.0354064 Eh/α   predicted    -0.1655689E-02 (-337.41%)
   displ. norm   :     0.1764982 α      lambda       -0.2249157E-02
   maximum displ.:     0.1116804 α      in ANC's #2, #4, #3, ...

........................................................................
.............................. CYCLE   12 ..............................
........................................................................

 iter      E             dE          RMSdq      gap      omega  full diag
   1    -13.6166419 -0.136166E+02  0.405E-01    5.49       0.0  T
   2    -13.6167784 -0.136456E-03  0.351E-01    5.49       1.0  T
   3    -13.6170074 -0.229055E-03  0.190E-01    5.50       1.0  T
   4    -13.6170207 -0.132194E-04  0.573E-02    5.50       1.0  T
   5    -13.6170253 -0.459442E-05  0.447E-02    5.51       1.0  T
   6    -13.6170296 -0.435289E-05  0.283E-02    5.51       1.6  T
   7    -13.6170318 -0.215508E-05  0.160E-02    5.52       2.8  T
   8    -13.6170328 -0.102029E-05  0.826E-03    5.52       5.4  T
   9    -13.6170330 -0.203739E-06  0.376E-03    5.52      11.9  T
  10    -13.6170330 -0.529842E-07  0.686E-04    5.52      65.2  T
  11    -13.6170330 -0.733298E-09  0.134E-04    5.52     334.4  T
     SCC iter.                  ...        0 min,  0.001 sec
     gradient                   ...        0 min,  0.000 sec
 * total energy  :   -13.5831221 Eh     change       -0.1371060E-02 Eh
   gradient norm :     0.0049832 Eh/α   predicted    -0.1159610E-02 ( -15.42%)
   displ. norm   :     0.1521144 α      lambda       -0.3070589E-03
   maximum displ.:     0.0993734 α      in ANC's #3, #4, #2, ...

........................................................................
.............................. CYCLE   13 ..............................
........................................................................

 iter      E             dE          RMSdq      gap      omega  full diag
   1    -13.6172286 -0.136172E+02  0.233E-01    5.43       0.0  T
   2    -13.6172443 -0.156993E-04  0.167E-01    5.44       1.0  T
   3    -13.6172605 -0.162100E-04  0.977E-02    5.44       1.0  T
   4    -13.6172753 -0.148304E-04  0.192E-02    5.44       2.3  T
   5    -13.6172757 -0.346834E-06  0.147E-02    5.44       3.0  T
   6    -13.6172761 -0.445121E-06  0.850E-03    5.44       5.3  T
   7    -13.6172763 -0.219535E-06  0.294E-03    5.44      15.2  T
   8    -13.6172763 -0.169535E-07  0.215E-03    5.44      20.8  T
   9    -13.6172763 -0.121362E-07  0.119E-03    5.44      37.6  T
  10    -13.6172764 -0.366276E-08  0.159E-04    5.44     281.8  T
  11    -13.6172764 -0.181277E-10  0.182E-05    5.44    2459.6  T
     SCC iter.                  ...        0 min,  0.001 sec
     gradient                   ...        0 min,  0.000 sec
 * total energy  :   -13.5832309 Eh     change       -0.1088678E-03 Eh
   gradient norm :     0.0087800 Eh/α   predicted    -0.1570813E-03 (  44.29%)
   displ. norm   :     0.0705297 α      lambda       -0.1507172E-03
   maximum displ.:     0.0506530 α      in ANC's #5, #4, #3, ...

........................................................................
.............................. CYCLE   14 ..............................
........................................................................

 iter      E             dE          RMSdq      gap      omega  full diag
   1    -13.6173227 -0.136173E+02  0.711E-02    5.47       0.0  T
   2    -13.6173234 -0.692446E-06  0.462E-02    5.47       1.0  T
   3    -13.6173216  0.179837E-05  0.249E-02    5.47       1.8  T
   4    -13.6173242 -0.255796E-05  0.555E-03    5.47       8.1  T
   5    -13.6173242 -0.263315E-07  0.402E-03    5.47      11.1  T
   6    -13.6173242 -0.287918E-07  0.252E-03    5.47      17.7  T
   7    -13.6173243 -0.232282E-07  0.106E-03    5.46      42.2  T
   8    -13.6173243 -0.295915E-08  0.435E-04    5.46     102.9  T
   9    -13.6173243 -0.374753E-09  0.187E-04    5.46     239.7  T
     SCC iter.                  ...        0 min,  0.001 sec
     gradient                   ...        0 min,  0.000 sec
 * total energy  :   -13.5833308 Eh     change       -0.9981886E-04 Eh
   gradient norm :     0.0065003 Eh/α   predicted    -0.7573411E-04 ( -24.13%)
   displ. norm   :     0.1293846 α      lambda       -0.1669569E-03
   maximum displ.:     0.0848655 α      in ANC's #5, #3, #4, ...

........................................................................
.............................. CYCLE   15 ..............................
........................................................................

 iter      E             dE          RMSdq      gap      omega  full diag
   1    -13.6172062 -0.136172E+02  0.143E-01    5.52       0.0  T
   2    -13.6172119 -0.577164E-05  0.989E-02    5.52       1.0  T
   3    -13.6172155 -0.360512E-05  0.619E-02    5.52       1.0  T
   4    -13.6172223 -0.678669E-05  0.141E-02    5.52       3.2  T
   5    -13.6172225 -0.206027E-06  0.111E-02    5.52       4.0  T
   6    -13.6172229 -0.320215E-06  0.579E-03    5.52       7.7  T
   7    -13.6172230 -0.118881E-06  0.195E-03    5.51      23.0  T
   8    -13.6172230 -0.796585E-08  0.129E-03    5.51      34.6  T
   9    -13.6172230 -0.356366E-08  0.719E-04    5.51      62.2  T
  10    -13.6172230 -0.101416E-08  0.895E-05    5.51     499.8  T
     SCC iter.                  ...        0 min,  0.001 sec
     gradient                   ...        0 min,  0.000 sec
 * total energy  :   -13.5834331 Eh     change       -0.1023490E-03 Eh
   gradient norm :     0.0029033 Eh/α   predicted    -0.8487592E-04 ( -17.07%)
   displ. norm   :     0.2047656 α      lambda       -0.1313068E-03
   maximum displ.:     0.1304585 α      in ANC's #3, #4, #5, ...

........................................................................
.............................. CYCLE   16 ..............................
........................................................................

 iter      E             dE          RMSdq      gap      omega  full diag
   1    -13.6165995 -0.136166E+02  0.252E-01    5.48       0.0  T
   2    -13.6166041 -0.464970E-05  0.161E-01    5.48       1.0  T
   3    -13.6165755  0.286096E-04  0.955E-02    5.48       1.0  T
   4    -13.6166134 -0.379463E-04  0.143E-02    5.48       3.1  T
   5    -13.6166138 -0.308405E-06  0.706E-03    5.48       6.3  T
   6    -13.6166139 -0.100839E-06  0.357E-03    5.48      12.5  T
   7    -13.6166139 -0.470746E-08  0.201E-03    5.48      22.2  T
   8    -13.6166139 -0.125009E-07  0.998E-04    5.48      44.8  T
   9    -13.6166139 -0.264562E-08  0.599E-04    5.48      74.7  T
     SCC iter.                  ...        0 min,  0.001 sec
     gradient                   ...        0 min,  0.000 sec
 * total energy  :   -13.5835107 Eh     change       -0.7761468E-04 Eh
   gradient norm :     0.0054333 Eh/α   predicted    -0.6840548E-04 ( -11.87%)
   displ. norm   :     0.1324134 α      lambda       -0.1344371E-03
   maximum displ.:     0.0943108 α      in ANC's #3, #4, #2, ...

........................................................................
.............................. CYCLE   17 ..............................
........................................................................

 iter      E             dE          RMSdq      gap      omega  full diag
   1    -13.6174540 -0.136175E+02  0.189E-01    5.48       0.0  T
   2    -13.6174549 -0.852833E-06  0.115E-01    5.48       1.0  T
   3    -13.6174556 -0.781547E-06  0.129E-02    5.48       3.5  T
   4    -13.6174558 -0.154716E-06  0.104E-02    5.48       4.3  T
   5    -13.6174560 -0.174386E-06  0.459E-03    5.48       9.7  T
   6    -13.6174560 -0.385805E-07  0.248E-03    5.48      18.0  T
   7    -13.6174560 -0.400088E-08  0.489E-04    5.48      91.5  T
   8    -13.6174560 -0.128601E-09  0.184E-04    5.48     243.4  T
     SCC iter.                  ...        0 min,  0.001 sec
     gradient                   ...        0 min,  0.000 sec
 * total energy  :   -13.5835993 Eh     change       -0.8854438E-04 Eh
   gradient norm :     0.0062697 Eh/α   predicted    -0.6839584E-04 ( -22.76%)
   displ. norm   :     0.1064444 α      lambda       -0.1208986E-03
   maximum displ.:     0.0609141 α      in ANC's #3, #4, #2, ...

........................................................................
.............................. CYCLE   18 ..............................
........................................................................

 iter      E             dE          RMSdq      gap      omega  full diag
   1    -13.6182969 -0.136183E+02  0.153E-01    5.49       0.0  T
   2    -13.6182975 -0.592704E-06  0.931E-02    5.49       1.0  T
   3    -13.6182967  0.835003E-06  0.194E-02    5.49       2.3  T
   4    -13.6182982 -0.148027E-05  0.821E-03    5.49       5.4  T
   5    -13.6182982 -0.576520E-07  0.612E-03    5.49       7.3  T
   6    -13.6182983 -0.739264E-07  0.199E-03    5.49      22.5  T
   7    -13.6182983 -0.301071E-08  0.519E-04    5.49      86.2  T
   8    -13.6182983 -0.303659E-09  0.342E-04    5.49     130.8  T
     SCC iter.                  ...        0 min,  0.001 sec
     gradient                   ...        0 min,  0.000 sec
 * total energy  :   -13.5836805 Eh     change       -0.8126524E-04 Eh
   gradient norm :     0.0045203 Eh/α   predicted    -0.6113486E-04 ( -24.77%)
   displ. norm   :     0.3055084 α      lambda       -0.1467761E-03
   maximum displ.:     0.2106515 α      in ANC's #3, #4, #2, ...

........................................................................
.............................. CYCLE   19 ..............................
........................................................................

 iter      E             dE          RMSdq      gap      omega  full diag
   1    -13.6153484 -0.136153E+02  0.470E-01    5.41       0.0  T
   2    -13.6153741 -0.257020E-04  0.305E-01    5.41       1.0  T
   3    -13.6153063  0.677618E-04  0.200E-01    5.41       1.0  T
   4    -13.6154374 -0.131128E-03  0.281E-02    5.42       1.6  T
   5    -13.6154382 -0.794349E-06  0.216E-02    5.42       2.1  T
   6    -13.6154392 -0.102284E-05  0.801E-03    5.42       5.6  T
   7    -13.6154393 -0.546378E-07  0.594E-03    5.42       7.5  T
   8    -13.6154394 -0.125971E-06  0.263E-03    5.42      17.0  T
   9    -13.6154394 -0.245106E-07  0.749E-04    5.42      59.7  T
  10    -13.6154394 -0.131680E-08  0.407E-04    5.42     110.0  T
     SCC iter.                  ...        0 min,  0.001 sec
     gradient                   ...        0 min,  0.000 sec
 * total energy  :   -13.5835764 Eh     change        0.1041745E-03 Eh
   gradient norm :     0.0179318 Eh/α   predicted    -0.8023557E-04 (-177.02%)
   displ. norm   :     0.1869676 α      lambda       -0.4777800E-03
   maximum displ.:     0.1297664 α      in ANC's #3, #4, #2, ...

........................................................................
.............................. CYCLE   20 ..............................
........................................................................

 iter      E             dE          RMSdq      gap      omega  full diag
   1    -13.6178256 -0.136178E+02  0.312E-01    5.53       0.0  T
   2    -13.6178557 -0.300831E-04  0.226E-01    5.53       1.0  T
   3    -13.6178877 -0.320578E-04  0.131E-01    5.52       1.0  T
   4    -13.6179148 -0.270304E-04  0.248E-02    5.52       1.8  T
   5    -13.6179154 -0.613932E-06  0.200E-02    5.52       2.2  T
   6    -13.6179165 -0.110559E-05  0.875E-03    5.52       5.1  T
   7    -13.6179167 -0.213767E-06  0.407E-03    5.52      11.0  T
   8    -13.6179167 -0.464302E-07  0.235E-03    5.52      19.0  T
   9    -13.6179168 -0.127425E-07  0.118E-03    5.52      37.9  T
  10    -13.6179168 -0.306428E-08  0.104E-04    5.52     429.2  T
  11    -13.6179168 -0.231992E-11  0.342E-05    5.52    1307.7  T
     SCC iter.                  ...        0 min,  0.001 sec
     gradient                   ...        0 min,  0.000 sec
 * total energy  :   -13.5837382 Eh     change       -0.1618492E-03 Eh
   gradient norm :     0.0031585 Eh/α   predicted    -0.2472408E-03 (  52.76%)
   displ. norm   :     0.0510758 α      lambda       -0.2798290E-04
   maximum displ.:     0.0330227 α      in ANC's #4, #3, #2, ...
 * RMSD in coord.:     0.9515183 α      energy gain  -0.1996131E-01 Eh

generating ANC from model Hessian ...
Using Lindh-Hessian (1995)
 Shifting diagonal of input Hessian by   9.746488220258944E-003
 Lowest  eigenvalues of input Hessian
    0.000000    0.000000    0.000000    0.000000    0.000000    0.000000
    0.010000    0.010136    0.018614    0.019273    0.059730    0.302800
    1.191286    1.408013    1.758688
 Highest eigenvalues
    0.019273    0.059730    0.302800    1.191286    1.408013    1.758688
 

........................................................................
.............................. CYCLE   21 ..............................
........................................................................

 iter      E             dE          RMSdq      gap      omega  full diag
   1    -13.6179006 -0.136179E+02  0.777E-02    5.50       0.0  T
   2    -13.6179015 -0.863218E-06  0.535E-02    5.50       1.0  T
   3    -13.6178999  0.154099E-05  0.312E-02    5.50       1.4  T
   4    -13.6179032 -0.329272E-05  0.574E-03    5.50       7.8  T
   5    -13.6179033 -0.371612E-07  0.427E-03    5.50      10.5  T
   6    -13.6179033 -0.457138E-07  0.198E-03    5.50      22.5  T
   7    -13.6179033 -0.989333E-08  0.853E-04    5.50      52.4  T
   8    -13.6179033 -0.143732E-08  0.603E-04    5.50      74.1  T
     SCC iter.                  ...        0 min,  0.001 sec
     gradient                   ...        0 min,  0.000 sec
 * total energy  :   -13.5837585 Eh     change       -0.2025799E-04 Eh
   gradient norm :     0.0022754 Eh/α   predicted     0.0000000E+00 (-100.00%)
   displ. norm   :     0.1027936 α      lambda       -0.1308606E-03
   maximum displ.:     0.0790396 α      in ANC's #1, #2, #4, ...

........................................................................
.............................. CYCLE   22 ..............................
........................................................................

 iter      E             dE          RMSdq      gap      omega  full diag
   1    -13.6173952 -0.136174E+02  0.155E-01    5.50       0.0  T
   2    -13.6173968 -0.156607E-05  0.960E-02    5.49       1.0  T
   3    -13.6173973 -0.475584E-06  0.191E-02    5.50       2.3  T
   4    -13.6173980 -0.776356E-06  0.106E-02    5.50       4.2  T
   5    -13.6173982 -0.149303E-06  0.391E-03    5.50      11.4  T
   6    -13.6173982 -0.177581E-08  0.235E-03    5.50      19.1  T
   7    -13.6173982 -0.171939E-07  0.389E-04    5.50     114.9  T
   8    -13.6173982 -0.351148E-09  0.130E-04    5.50     345.3  T
     SCC iter.                  ...        0 min,  0.001 sec
     gradient                   ...        0 min,  0.000 sec
 * total energy  :   -13.5837944 Eh     change       -0.3593017E-04 Eh
   gradient norm :     0.0035043 Eh/α   predicted    -0.6612082E-04 (  84.03%)
   displ. norm   :     0.0456891 α      lambda       -0.4798257E-04
   maximum displ.:     0.0434143 α      in ANC's #2, #4, #1, ...

........................................................................
.............................. CYCLE   23 ..............................
........................................................................

 iter      E             dE          RMSdq      gap      omega  full diag
   1    -13.6178262 -0.136178E+02  0.509E-02    5.50       0.0  T
   2    -13.6178264 -0.137419E-06  0.309E-02    5.50       1.4  T
   3    -13.6178262  0.122046E-06  0.751E-03    5.50       6.0  T
   4    -13.6178265 -0.209356E-06  0.212E-03    5.50      21.1  T
   5    -13.6178265 -0.500742E-08  0.138E-03    5.50      32.5  T
   6    -13.6178265 -0.227361E-08  0.558E-04    5.50      80.2  T
   7    -13.6178265 -0.523295E-09  0.250E-04    5.50     178.6  T
     SCC iter.                  ...        0 min,  0.001 sec
     gradient                   ...        0 min,  0.000 sec
 * total energy  :   -13.5838256 Eh     change       -0.3125255E-04 Eh
   gradient norm :     0.0016785 Eh/α   predicted    -0.2404078E-04 ( -23.08%)
   displ. norm   :     0.1092028 α      lambda       -0.3047858E-04
   maximum displ.:     0.0797234 α      in ANC's #1, #2, #4, ...

........................................................................
.............................. CYCLE   24 ..............................
........................................................................

 iter      E             dE          RMSdq      gap      omega  full diag
   1    -13.6178189 -0.136178E+02  0.157E-01    5.50       0.0  T
   2    -13.6178195 -0.537223E-06  0.967E-02    5.50       1.0  T
   3    -13.6178168  0.265009E-05  0.256E-02    5.50       1.7  T
   4    -13.6178202 -0.334095E-05  0.727E-03    5.50       6.2  T
   5    -13.6178202 -0.475412E-07  0.511E-03    5.50       8.7  T
   6    -13.6178203 -0.492061E-07  0.179E-03    5.50      25.0  T
   7    -13.6178203 -0.192761E-08  0.473E-04    5.50      94.5  T
   8    -13.6178203 -0.135305E-09  0.185E-04    5.50     242.2  T
     SCC iter.                  ...        0 min,  0.001 sec
     gradient                   ...        0 min,  0.000 sec
 * total energy  :   -13.5838580 Eh     change       -0.3239713E-04 Eh
   gradient norm :     0.0025106 Eh/α   predicted    -0.1532103E-04 ( -52.71%)
   displ. norm   :     0.0980879 α      lambda       -0.3078852E-04
   maximum displ.:     0.0829483 α      in ANC's #1, #2, #3, ...

........................................................................
.............................. CYCLE   25 ..............................
........................................................................

 iter      E             dE          RMSdq      gap      omega  full diag
   1    -13.6176315 -0.136176E+02  0.150E-01    5.49       0.0  T
   2    -13.6176321 -0.642252E-06  0.936E-02    5.49       1.0  T
   3    -13.6176265  0.565786E-05  0.356E-02    5.49       1.3  T
   4    -13.6176332 -0.670113E-05  0.757E-03    5.49       5.9  T
   5    -13.6176333 -0.913183E-07  0.315E-03    5.49      14.2  T
   6    -13.6176333 -0.143338E-07  0.179E-03    5.49      25.0  T
   7    -13.6176333 -0.249803E-08  0.629E-04    5.49      71.1  T
   8    -13.6176333 -0.607821E-09  0.343E-04    5.49     130.5  T
     SCC iter.                  ...        0 min,  0.001 sec
     gradient                   ...        0 min,  0.000 sec
 * total energy  :   -13.5838804 Eh     change       -0.2236772E-04 Eh
   gradient norm :     0.0040849 Eh/α   predicted    -0.1554225E-04 ( -30.51%)
   displ. norm   :     0.1010166 α      lambda       -0.3421750E-04
   maximum displ.:     0.0851911 α      in ANC's #1, #2, #3, ...

........................................................................
.............................. CYCLE   26 ..............................
........................................................................

 iter      E             dE          RMSdq      gap      omega  full diag
   1    -13.6175801 -0.136176E+02  0.153E-01    5.48       0.0  T
   2    -13.6175806 -0.501240E-06  0.946E-02    5.48       1.0  T
   3    -13.6175776  0.305231E-05  0.270E-02    5.48       1.7  T
   4    -13.6175813 -0.376929E-05  0.729E-03    5.48       6.1  T
   5    -13.6175814 -0.816467E-07  0.310E-03    5.48      14.4  T
   6    -13.6175814 -0.139621E-07  0.177E-03    5.48      25.2  T
   7    -13.6175814 -0.246053E-08  0.512E-04    5.48      87.4  T
   8    -13.6175814 -0.283979E-09  0.256E-04    5.48     174.9  T
     SCC iter.                  ...        0 min,  0.001 sec
     gradient                   ...        0 min,  0.000 sec
 * total energy  :   -13.5839044 Eh     change       -0.2396451E-04 Eh
   gradient norm :     0.0044226 Eh/α   predicted    -0.1728223E-04 ( -27.88%)
   displ. norm   :     0.0717345 α      lambda       -0.4321171E-04
   maximum displ.:     0.0621125 α      in ANC's #1, #2, #3, ...

........................................................................
.............................. CYCLE   27 ..............................
........................................................................

 iter      E             dE          RMSdq      gap      omega  full diag
   1    -13.6179642 -0.136180E+02  0.107E-01    5.49       0.0  T
   2    -13.6179648 -0.603349E-06  0.650E-02    5.49       1.0  T
   3    -13.6179609  0.388277E-05  0.336E-02    5.49       1.3  T
   4    -13.6179657 -0.480291E-05  0.581E-03    5.49       7.7  T
   5    -13.6179658 -0.277405E-07  0.461E-03    5.49       9.7  T
   6    -13.6179658 -0.405848E-07  0.171E-03    5.49      26.2  T
   7    -13.6179658 -0.448093E-08  0.614E-04    5.49      72.8  T
   8    -13.6179658 -0.695811E-09  0.438E-04    5.49     102.2  T
     SCC iter.                  ...        0 min,  0.001 sec
     gradient                   ...        0 min,  0.000 sec
 * total energy  :   -13.5839339 Eh     change       -0.2953119E-04 Eh
   gradient norm :     0.0021438 Eh/α   predicted    -0.2171815E-04 ( -26.46%)
   displ. norm   :     0.1397855 α      lambda       -0.3493283E-04
   maximum displ.:     0.1294771 α      in ANC's #1, #2, #4, ...

........................................................................
.............................. CYCLE   28 ..............................
........................................................................

 iter      E             dE          RMSdq      gap      omega  full diag
   1    -13.6172614 -0.136173E+02  0.215E-01    5.49       0.0  T
   2    -13.6172624 -0.100262E-05  0.132E-01    5.49       1.0  T
   3    -13.6172589  0.347038E-05  0.310E-02    5.49       1.4  T
   4    -13.6172636 -0.470725E-05  0.103E-02    5.49       4.3  T
   5    -13.6172638 -0.145479E-06  0.477E-03    5.49       9.4  T
   6    -13.6172638 -0.310651E-07  0.281E-03    5.49      15.9  T
   7    -13.6172638 -0.732838E-08  0.694E-04    5.49      64.5  T
   8    -13.6172638 -0.316014E-09  0.212E-04    5.49     210.9  T
     SCC iter.                  ...        0 min,  0.001 sec
     gradient                   ...        0 min,  0.000 sec
 * total energy  :   -13.5839399 Eh     change       -0.6038378E-05 Eh
   gradient norm :     0.0060489 Eh/α   predicted    -0.1780699E-04 ( 194.90%)
   displ. norm   :     0.0368266 α      lambda       -0.4121402E-04
   maximum displ.:     0.0317531 α      in ANC's #1, #2, #3, ...

........................................................................
.............................. CYCLE   29 ..............................
........................................................................

 iter      E             dE          RMSdq      gap      omega  full diag
   1    -13.6180604 -0.136181E+02  0.674E-02    5.51       0.0  T
   2    -13.6180619 -0.147105E-05  0.470E-02    5.51       1.0  T
   3    -13.6180637 -0.183245E-05  0.288E-02    5.51       1.6  T
   4    -13.6180650 -0.130019E-05  0.522E-03    5.51       8.6  T
   5    -13.6180651 -0.268525E-07  0.417E-03    5.51      10.7  T
   6    -13.6180651 -0.466589E-07  0.186E-03    5.51      24.0  T
   7    -13.6180651 -0.972412E-08  0.810E-04    5.51      55.2  T
   8    -13.6180651 -0.174997E-08  0.501E-04    5.51      89.3  T
     SCC iter.                  ...        0 min,  0.001 sec
     gradient                   ...        0 min,  0.000 sec
 * total energy  :   -13.5839584 Eh     change       -0.1849964E-04 Eh
   gradient norm :     0.0007621 Eh/α   predicted    -0.2063563E-04 (  11.55%)
   displ. norm   :     0.0814427 α      lambda       -0.1029290E-04
   maximum displ.:     0.0669709 α      in ANC's #1, #2, #8, ...

........................................................................
.............................. CYCLE   30 ..............................
........................................................................

 iter      E             dE          RMSdq      gap      omega  full diag
   1    -13.6179471 -0.136179E+02  0.125E-01    5.50       0.0  T
   2    -13.6179474 -0.289714E-06  0.766E-02    5.50       1.0  T
   3    -13.6179462  0.118963E-05  0.177E-02    5.50       2.5  T
   4    -13.6179477 -0.156840E-05  0.572E-03    5.50       7.8  T
   5    -13.6179478 -0.404569E-07  0.317E-03    5.50      14.1  T
   6    -13.6179478 -0.188674E-07  0.137E-03    5.50      32.7  T
   7    -13.6179478 -0.110932E-08  0.344E-04    5.50     129.9  T
   8    -13.6179478 -0.101057E-09  0.160E-04    5.50     279.0  T
     SCC iter.                  ...        0 min,  0.001 sec
     gradient                   ...        0 min,  0.000 sec
 * total energy  :   -13.5839710 Eh     change       -0.1257292E-04 Eh
   gradient norm :     0.0011131 Eh/α   predicted    -0.5162943E-05 ( -58.94%)
   displ. norm   :     0.2016337 α      lambda       -0.1943333E-04
   maximum displ.:     0.1746611 α      in ANC's #1, #2, #6, ...

........................................................................
.............................. CYCLE   31 ..............................
........................................................................

 iter      E             dE          RMSdq      gap      omega  full diag
   1    -13.6170524 -0.136171E+02  0.320E-01    5.49       0.0  T
   2    -13.6170553 -0.295240E-05  0.197E-01    5.49       1.0  T
   3    -13.6170302  0.251232E-04  0.760E-02    5.49       1.0  T
   4    -13.6170600 -0.297548E-04  0.156E-02    5.49       2.9  T
   5    -13.6170602 -0.241856E-06  0.103E-02    5.49       4.4  T
   6    -13.6170604 -0.200271E-06  0.413E-03    5.49      10.8  T
   7    -13.6170604 -0.120618E-07  0.159E-03    5.49      28.1  T
   8    -13.6170604 -0.536107E-08  0.674E-04    5.49      66.3  T
   9    -13.6170604 -0.111747E-08  0.414E-04    5.49     107.9  T
     SCC iter.                  ...        0 min,  0.001 sec
     gradient                   ...        0 min,  0.000 sec
 * total energy  :   -13.5839516 Eh     change        0.1937351E-04 Eh
   gradient norm :     0.0080064 Eh/α   predicted    -0.9891217E-05 (-151.06%)
   displ. norm   :     0.0808176 α      lambda       -0.6737965E-04
   maximum displ.:     0.0726248 α      in ANC's #1, #2, #6, ...

........................................................................
.............................. CYCLE   32 ..............................
........................................................................

 iter      E             dE          RMSdq      gap      omega  full diag
   1    -13.6179702 -0.136180E+02  0.131E-01    5.51       0.0  T
   2    -13.6179714 -0.126289E-05  0.825E-02    5.51       1.0  T
   3    -13.6179640  0.746596E-05  0.486E-02    5.51       1.0  T
   4    -13.6179739 -0.993823E-05  0.681E-03    5.51       6.6  T
   5    -13.6179739 -0.418160E-07  0.492E-03    5.51       9.1  T
   6    -13.6179740 -0.490190E-07  0.221E-03    5.51      20.3  T
   7    -13.6179740 -0.757868E-08  0.806E-04    5.51      55.5  T
   8    -13.6179740 -0.149556E-08  0.575E-04    5.51      77.8  T
     SCC iter.                  ...        0 min,  0.001 sec
     gradient                   ...        0 min,  0.000 sec
 * total energy  :   -13.5839839 Eh     change       -0.3222256E-04 Eh
   gradient norm :     0.0015810 Eh/α   predicted    -0.3391057E-04 (   5.24%)
   displ. norm   :     0.0212300 α      lambda       -0.2675766E-05
   maximum displ.:     0.0169046 α      in ANC's #1, #2, #8, ...

........................................................................
.............................. CYCLE   33 ..............................
........................................................................

 iter      E             dE          RMSdq      gap      omega  full diag
   1    -13.6181291 -0.136181E+02  0.323E-02    5.51       0.0  T
   2    -13.6181291 -0.560135E-07  0.196E-02    5.51       2.3  T
   3    -13.6181287  0.410978E-06  0.111E-02    5.51       4.0  T
   4    -13.6181292 -0.514837E-06  0.166E-03    5.51      26.9  T
   5    -13.6181292 -0.269083E-08  0.123E-03    5.51      36.3  T
   6    -13.6181292 -0.339056E-08  0.516E-04    5.51      86.8  T
   7    -13.6181292 -0.501657E-09  0.192E-04    5.51     232.9  T
     SCC iter.                  ...        0 min,  0.001 sec
     gradient                   ...        0 min,  0.000 sec
 * total energy  :   -13.5839866 Eh     change       -0.2740516E-05 Eh
   gradient norm :     0.0003543 Eh/α   predicted    -0.1337288E-05 ( -51.20%)
   displ. norm   :     0.0462905 α      lambda       -0.2552381E-05
   maximum displ.:     0.0404392 α      in ANC's #1, #2, #8, ...

   *** GEOMETRY OPTIMIZATION CONVERGED AFTER 33 ITERATIONS ***

------------------------------------------------------------------------
 total energy gain   :        -0.0202097 Eh      -12.6818 kcal/mol
 total RMSD          :         1.1670576 a0        0.6176 Å
 total power (kW/mol):        -1.6078963 (step) -840.2286 (real)
------------------------------------------------------------------------

 ANCopt (total)                0 d,  0 h,  0 min,  0.063 sec
 optimizer setup                ...        0 min,  0.000 sec (  0.173%)
 model hessian                  ...        0 min,  0.000 sec (  0.386%)
 ANC generation                 ...        0 min,  0.000 sec (  0.228%)
 coordinate transformation      ...        0 min,  0.000 sec (  0.395%)
 single point calculation       ...        0 min,  0.059 sec ( 93.189%)
 optimization log               ...        0 min,  0.001 sec (  1.464%)
 hessian update                 ...        0 min,  0.000 sec (  0.550%)
 rational function              ...        0 min,  0.001 sec (  1.464%)

================
 final structure:
================
5
 xtb: 6.6.1 (8d0f1dd)
O           -0.13850347260398        5.54447306506738        1.07685464266952
Cl          -1.44747419948243        6.32268015759695        0.71165733672009
H            0.35085750323398        5.17708673361557        2.69527970762491
O            0.68473283325724        4.91375615781959        3.57653176605624
H            1.44802002048706        4.35043828531583        3.42728860433089
 
 Bond Distances (Angstroems)
 ---------------------------
O1-Cl2=1.5660        Cl2-O1=1.5660        H3-O4=0.9785         O4-H3=0.9785         O4-H5=0.9603         H5-O4=0.9603         
 O  H  Rav=0.9694 sigma=0.0091  Rmin=0.9603  Rmax=0.9785     2
 Cl O  Rav=1.5660 sigma=0.0000  Rmin=1.5660  Rmax=1.5660     1
 
 selected bond angles (degree)
 --------------------
H5-O4-H3=106.80                
 
 selected dihedral angles (degree)
 ---------------------------------

 
 CMA Distance (Angstroems)
 ---------------------------
R(CMA):  3.4230
           -------------------------------------------------
          |                Final Singlepoint                |
           -------------------------------------------------

          ...................................................
          :                      SETUP                      :
          :.................................................:
          :  # basis functions                  20          :
          :  # atomic orbitals                  19          :
          :  # shells                            9          :
          :  # electrons                        21          :
          :  max. iterations                   800          :
          :  Hamiltonian                  GFN2-xTB          :
          :  restarted?                      false          :
          :  GBSA solvation                  false          :
          :  PC potential                    false          :
          :  electronic temp.         6000.0000000     K    :
          :  accuracy                    1.0000000          :
          :  -> integral cutoff          0.2500000E+02      :
          :  -> integral neglect         0.1000000E-07      :
          :  -> SCF convergence          0.1000000E-05 Eh   :
          :  -> wf. convergence          0.1000000E-03 e    :
          :  Broyden damping             0.4000000          :
          ...................................................

 iter      E             dE          RMSdq      gap      omega  full diag
   1    -13.6181292 -0.136181E+02  0.151E-04    5.51       0.0  T
   2    -13.6181292 -0.193836E-10  0.127E-04    5.51     351.5  T
   3    -13.6181292 -0.139710E-10  0.114E-04    5.51     391.9  T

   *** convergence criteria satisfied after 3 iterations ***

         #    Occupation            Energy/Eh            Energy/eV
      -------------------------------------------------------------
         1        2.0000           -1.0960438             -29.8249
       ...           ...                  ...                  ...
         5        1.9994           -0.5682644             -15.4633
         6        1.9982           -0.5455270             -14.8445
         7        1.9981           -0.5444874             -14.8163
         8        1.9923           -0.5181233             -14.0989
         9        1.8617           -0.4605154             -12.5313
        10        1.5719           -0.4314003             -11.7390
        11        1.5714           -0.4313591             -11.7379 (HOMO)
        12        0.0072           -0.2289192              -6.2292 (LUMO)
        13        0.0000           -0.0418005              -1.1374
        14        0.0000           -0.0417799              -1.1369
        15        0.0000           -0.0191438              -0.5209
        16        0.0000           -0.0177003              -0.4816
       ...           ...                  ...                  ...
        19                          0.2841845               7.7331
      -------------------------------------------------------------
                  HL-Gap            0.2024398 Eh            5.5087 eV
             Fermi-level           -0.3740642 Eh          -10.1788 eV

 SCC (total)                   0 d,  0 h,  0 min,  0.001 sec
 SCC setup                      ...        0 min,  0.000 sec (  4.397%)
 Dispersion                     ...        0 min,  0.000 sec (  1.567%)
 classical contributions        ...        0 min,  0.000 sec (  0.890%)
 integral evaluation            ...        0 min,  0.000 sec ( 18.889%)
 iterations                     ...        0 min,  0.001 sec ( 38.918%)
 molecular gradient             ...        0 min,  0.000 sec ( 24.479%)
 printout                       ...        0 min,  0.000 sec (  7.976%)

         :::::::::::::::::::::::::::::::::::::::::::::::::::::
         ::                     SUMMARY                     ::
         :::::::::::::::::::::::::::::::::::::::::::::::::::::
         :: total energy             -13.583986607047 Eh    ::
         :: gradient norm              0.000369696629 Eh/a0 ::
         :: HOMO-LUMO gap              5.508668629655 eV    ::
         ::.................................................::
         :: SCC energy               -13.618129243997 Eh    ::
         :: -> isotropic ES            0.043592499202 Eh    ::
         :: -> anisotropic ES         -0.003855313713 Eh    ::
         :: -> anisotropic XC         -0.004596680538 Eh    ::
         :: -> dispersion             -0.001330665352 Eh    ::
         :: repulsion energy           0.034142846848 Eh    ::
         :: add. restraining           0.000000000000 Eh    ::
         :: total charge               0.000000000011 e     ::
         :::::::::::::::::::::::::::::::::::::::::::::::::::::

           -------------------------------------------------
          |                Property Printout                |
           -------------------------------------------------

    * Orbital Energies and Occupations

         #    Occupation            Energy/Eh            Energy/eV
      -------------------------------------------------------------
         1        2.0000           -1.0960438             -29.8249
         2        2.0000           -0.6927694             -18.8512
         3        2.0000           -0.6874116             -18.7054
         4        1.9998           -0.5884757             -16.0132
         5        1.9994           -0.5682644             -15.4633
         6        1.9982           -0.5455270             -14.8445
         7        1.9981           -0.5444874             -14.8163
         8        1.9923           -0.5181233             -14.0989
         9        1.8617           -0.4605154             -12.5313
        10        1.5719           -0.4314003             -11.7390
        11        1.5714           -0.4313591             -11.7379 (HOMO)
        12        0.0072           -0.2289192              -6.2292 (LUMO)
        13        0.0000           -0.0418005              -1.1374
        14        0.0000           -0.0417799              -1.1369
        15        0.0000           -0.0191438              -0.5209
        16        0.0000           -0.0177003              -0.4816
        17                          0.0930314               2.5315
        18                          0.2097582               5.7078
        19                          0.2841845               7.7331
      -------------------------------------------------------------
                  HL-Gap            0.2024398 Eh            5.5087 eV
             Fermi-level           -0.3740642 Eh          -10.1788 eV

     #   Z          covCN         q      C6AA      α(0)
     1   8 O        0.939    -0.367    21.003     6.146
     2  17 Cl       0.939     0.243    92.189    14.689
     3   1 H        0.803     0.337     0.620     1.237
     4   8 O        1.608    -0.514    23.226     6.504
     5   1 H        0.805     0.301     0.717     1.330

 Mol. C6AA /au·bohr⁶  :        423.143827
 Mol. C8AA /au·bohr⁸  :      12013.988201
 Mol. α(0) /au        :         29.906682


Wiberg/Mayer (AO) data.
largest (>0.10) Wiberg bond orders for each atom

 ---------------------------------------------------------------------------
     #   Z sym  total        # sym  WBO       # sym  WBO       # sym  WBO
 ---------------------------------------------------------------------------
     1   8 O    1.347 --     2 Cl   1.274
     2  17 Cl   1.286 --     1 O    1.274
     3   1 H    0.885 --     4 O    0.828
     4   8 O    1.763 --     5 H    0.908     3 H    0.828
     5   1 H    0.908 --     4 O    0.908
 ---------------------------------------------------------------------------

Topologies differ in total number of bonds
Writing topology from bond orders to xtbtopo.mol

molecular dipole:
                 x           y           z       tot (Debye)
 q only:       -0.187       0.057      -0.228
   full:       -0.170       0.039      -0.489       1.321
molecular quadrupole (traceless):
                xx          xy          yy          xz          yz          zz
 q only:        3.592      -6.239       2.609       1.924      -5.041      -6.201
  q+dip:        5.051      -6.023       3.796       2.240      -9.320      -8.846
   full:        5.476      -6.593       3.658       2.475      -9.466      -9.134

           -------------------------------------------------
          |                Geometry Summary                 |
           -------------------------------------------------

      molecular mass/u    :       69.4676289
   center of mass at/Å    :       -0.5868159       5.7737144       1.5237738
  moments of inertia/u·Å² :        0.1008072E+02   0.1751260E+03   0.1851823E+03
rotational constants/cm⁻¹ :        0.1672265E+01   0.9626000E-01   0.9103261E-01

 * 2 selected distances

     #   Z          #   Z                                           value/Å
     3   1 H        4   8 O                                       0.9784790 (max)
     4   8 O        5   1 H                                       0.9603166 (min)

 * 1 distinct bonds (by element types)

   Z      Z             #   av. dist./Å        max./Å        min./Å
   1 H    8 O           2     0.9693978     0.9784790     0.9603166


optimized geometry written to: xtbopt.xyz


           -------------------------------------------------
          | TOTAL ENERGY              -13.583986607047 Eh   |
          | GRADIENT NORM               0.000369696629 Eh/α |
          | HOMO-LUMO GAP               5.508668629655 eV   |
           -------------------------------------------------

------------------------------------------------------------------------
 * finished run on 2025/04/07 at 09:40:51.530     
------------------------------------------------------------------------
 total:
 * wall-time:     0 d,  0 h,  0 min,  0.169 sec
 *  cpu-time:     0 d,  0 h,  0 min,  0.821 sec
 * ratio c/w:     4.865 speedup
 SCF:
 * wall-time:     0 d,  0 h,  0 min,  0.030 sec
 *  cpu-time:     0 d,  0 h,  0 min,  0.218 sec
 * ratio c/w:     7.378 speedup
 ANC optimizer:
 * wall-time:     0 d,  0 h,  0 min,  0.067 sec
 *  cpu-time:     0 d,  0 h,  0 min,  0.532 sec
 * ratio c/w:     7.978 speedup

