5
 energy: -13.583977306249 gnorm: 0.000917215287 xtb: 6.6.1 (8d0f1dd)
O           -0.02598601571334        5.58907057082225        1.14873294627739
Cl          -1.36530389398016        4.92519771227061        0.68496700314152
H            1.97518231148182        5.94490749280359        3.44276546156161
O            1.22103792388366        5.35837215347429        3.53960325183666
H            0.72402865837242        5.39689237556702        2.69779036320253
