      -----------------------------------------------------------      
     |                   =====================                   |     
     |                           x T B                           |     
     |                   =====================                   |     
     |                         S. Grimme                         |     
     |          Mulliken Center for Theoretical Chemistry        |     
     |                    University of Bonn                     |     
      -----------------------------------------------------------      

   * xtb version 6.6.1 (8d0f1dd) compiled by 'stahn@M-Bot' on 2023-08-01

   xtb is free software: you can redistribute it and/or modify it under
   the terms of the GNU Lesser General Public License as published by
   the Free Software Foundation, either version 3 of the License, or
   (at your option) any later version.
   
   xtb is distributed in the hope that it will be useful,
   but WITHOUT ANY WARRANTY; without even the implied warranty of
   MERCHANTABILITY or FITNESS FOR A PARTICULAR PURPOSE.  See the
   GNU Lesser General Public License for more details.
   
   Cite this work as:
   * C. Bannwarth, E. Caldeweyher, S. Ehlert, A. Hansen, P. Pracht,
     J. Seibert, S. Spicher, S. Grimme, WIREs Comput. Mol. Sci., 2020, 11,
     e01493. DOI: 10.1002/wcms.1493
   
   for GFN2-xTB:
   * C. Bannwarth, S. Ehlert and S. Grimme., J. Chem. Theory Comput., 2019,
     15, 1652-1671. DOI: 10.1021/acs.jctc.8b01176
   for GFN1-xTB:
   * S. Grimme, C. Bannwarth, P. Shushkov, J. Chem. Theory Comput., 2017,
     13, 1989-2009. DOI: 10.1021/acs.jctc.7b00118
   for GFN0-xTB:
   * P. Pracht, E. Caldeweyher, S. Ehlert, S. Grimme, ChemRxiv, 2019, preprint.
     DOI: 10.26434/chemrxiv.8326202.v1
   for GFN-FF:
   * S. Spicher and S. Grimme, Angew. Chem. Int. Ed., 2020, 59, 15665-15673.
     DOI: 10.1002/anie.202004239
   
   for ALPB and GBSA implicit solvation:
   * S. Ehlert, M. Stahn, S. Spicher, S. Grimme, J. Chem. Theory Comput.,
     2021, 17, 4250-4261. DOI: 10.1021/acs.jctc.1c00471
   
   for DFT-D4:
   * E. Caldeweyher, C. Bannwarth and S. Grimme, J. Chem. Phys., 2017,
     147, 034112. DOI: 10.1063/1.4993215
   * E. Caldeweyher, S. Ehlert, A. Hansen, H. Neugebauer, S. Spicher,
     C. Bannwarth and S. Grimme, J. Chem. Phys., 2019, 150, 154122.
     DOI: 10.1063/1.5090222
   * E. Caldeweyher, J.-M. Mewes, S. Ehlert and S. Grimme, Phys. Chem. Chem. Phys.
     2020, 22, 8499-8512. DOI: 10.1039/D0CP00502A
   
   for sTDA-xTB:
   * S. Grimme and C. Bannwarth, J. Chem. Phys., 2016, 145, 054103.
     DOI: 10.1063/1.4959605
   
   in the mass-spec context:
   * V. Asgeirsson, C. Bauer and S. Grimme, Chem. Sci., 2017, 8, 4879.
     DOI: 10.1039/c7sc00601b
   * J. Koopman and S. Grimme, ACS Omega 2019, 4, 12, 15120-15133.
     DOI: 10.1021/acsomega.9b02011
   
   for metadynamics refer to:
   * S. Grimme, J. Chem. Theory Comput., 2019, 155, 2847-2862
     DOI: 10.1021/acs.jctc.9b00143
   
   for SPH calculations refer to:
   * S. Spicher and S. Grimme, J. Chem. Theory Comput., 2021, 17, 1701-1714
     DOI: 10.1021/acs.jctc.0c01306
   
   with help from (in alphabetical order)
   P. Atkinson, C. Bannwarth, F. Bohle, G. Brandenburg, E. Caldeweyher
   M. Checinski, S. Dohm, S. Ehlert, S. Ehrlich, I. Gerasimov, C. Hölzer
   A. Katbashev, J. Koopman, C. Lavigne, S. Lehtola, F. März, M. Müller,
   F. Musil, H. Neugebauer, J. Pisarek, C. Plett, P. Pracht, F. Pultar,
   J. Seibert, P. Shushkov, S. Spicher, M. Stahn, M. Steiner, T. Strunk,
   J. Stückrath, T. Rose, and J. Unsleber
   
 * started run on 2025/04/07 at 09:40:51.544     

           -------------------------------------------------
          |                Calculation Setup                |
           -------------------------------------------------

          program call               : xtb 549.xyz --input 549.inp --opt
          hostname                   : serv11
          coordinate file            : 549.xyz
          omp threads                :                     8

   ID    Z sym.   atoms
    1    8 O      1, 4
    2   17 Cl     2
    3    1 H      3, 5

molecular fragmentation (1/2 indicates fragments):
11222
# atoms in fragment 1/2:     2     3
 fragment masses (1/2) :       51.45       18.02
CMA distance (Bohr)    :   5.328
constraining FC (au)   :  0.0500

           -------------------------------------------------
          |                 G F N 2 - x T B                 |
           -------------------------------------------------

        Reference                      10.1021/acs.jctc.8b01176
      * Hamiltonian:
        H0-scaling (s, p, d)           1.850000    2.230000    2.230000
        zeta-weighting                 0.500000
      * Dispersion:
        s8                             2.700000
        a1                             0.520000
        a2                             5.000000
        s9                             5.000000
      * Repulsion:
        kExp                           1.500000    1.000000
        rExp                           1.000000
      * Coulomb:
        alpha                          2.000000
        third order                    shell-resolved
        anisotropic                    true
        a3                             3.000000
        a5                             4.000000
        cn-shift                       1.200000
        cn-exp                         4.000000
        max-rad                        5.000000

q/qsh data taken from xtbrestart
CAMM data taken from xtbrestart

          ...................................................
          :                      SETUP                      :
          :.................................................:
          :  # basis functions                  20          :
          :  # atomic orbitals                  19          :
          :  # shells                            9          :
          :  # electrons                        21          :
          :  max. iterations                   800          :
          :  Hamiltonian                  GFN2-xTB          :
          :  restarted?                       true          :
          :  GBSA solvation                  false          :
          :  PC potential                    false          :
          :  electronic temp.         6000.0000000     K    :
          :  accuracy                    1.0000000          :
          :  -> integral cutoff          0.2500000E+02      :
          :  -> integral neglect         0.1000000E-07      :
          :  -> SCF convergence          0.1000000E-05 Eh   :
          :  -> wf. convergence          0.1000000E-03 e    :
          :  Broyden damping             0.4000000          :
          ...................................................

 iter      E             dE          RMSdq      gap      omega  full diag
   1    -13.5560278 -0.135560E+02  0.350E+00    5.31       0.0  T
   2    -13.5580655 -0.203768E-02  0.215E+00    5.44       1.0  T
   3    -13.5565155  0.154991E-02  0.939E-01    5.32       1.0  T
   4    -13.5589236 -0.240802E-02  0.275E-01    5.40       1.0  T
   5    -13.5590497 -0.126136E-03  0.198E-01    5.40       1.0  T
   6    -13.5591066 -0.569035E-04  0.116E-01    5.39       1.0  T
   7    -13.5591307 -0.241116E-04  0.333E-02    5.39       1.3  T
   8    -13.5591317 -0.943680E-06  0.138E-02    5.39       3.2  T
   9    -13.5591319 -0.261809E-06  0.684E-03    5.39       6.5  T
  10    -13.5591321 -0.153630E-06  0.317E-03    5.39      14.1  T
  11    -13.5591321 -0.214275E-07  0.203E-03    5.39      22.1  T
  12    -13.5591321 -0.158247E-07  0.293E-04    5.39     152.7  T
  13    -13.5591321 -0.452225E-10  0.487E-05    5.39     919.2  T

   *** convergence criteria satisfied after 13 iterations ***

         #    Occupation            Energy/Eh            Energy/eV
      -------------------------------------------------------------
         1        2.0000           -1.0978037             -29.8728
       ...           ...                  ...                  ...
         5        1.9994           -0.5680001             -15.4561
         6        1.9985           -0.5495839             -14.9549
         7        1.9977           -0.5422228             -14.7546
         8        1.9910           -0.5157501             -14.0343
         9        1.8829           -0.4648465             -12.6491
        10        1.5686           -0.4318844             -11.7522
        11        1.5532           -0.4307099             -11.7202 (HOMO)
        12        0.0070           -0.2327658              -6.3339 (LUMO)
        13        0.0020           -0.2092155              -5.6930
        14        0.0000           -0.0447166              -1.2168
        15        0.0000           -0.0439092              -1.1948
        16                         -0.0203191              -0.5529
       ...                                ...                  ...
        19                          0.2507345               6.8228
      -------------------------------------------------------------
                  HL-Gap            0.1979441 Eh            5.3863 eV
             Fermi-level           -0.3766542 Eh          -10.2493 eV

 SCC (total)                   0 d,  0 h,  0 min,  0.017 sec
 SCC setup                      ...        0 min,  0.000 sec (  0.928%)
 Dispersion                     ...        0 min,  0.000 sec (  0.350%)
 classical contributions        ...        0 min,  0.000 sec (  0.181%)
 integral evaluation            ...        0 min,  0.012 sec ( 72.794%)
 iterations                     ...        0 min,  0.004 sec ( 22.166%)
 molecular gradient             ...        0 min,  0.000 sec (  2.608%)
 printout                       ...        0 min,  0.000 sec (  0.694%)

         :::::::::::::::::::::::::::::::::::::::::::::::::::::
         ::                     SUMMARY                     ::
         :::::::::::::::::::::::::::::::::::::::::::::::::::::
         :: total energy             -13.532100245719 Eh    ::
         :: gradient norm              0.157474230534 Eh/a0 ::
         :: HOMO-LUMO gap              5.386333393410 eV    ::
         ::.................................................::
         :: SCC energy               -13.559132109339 Eh    ::
         :: -> isotropic ES            0.046905815085 Eh    ::
         :: -> anisotropic ES         -0.001250454734 Eh    ::
         :: -> anisotropic XC         -0.004208487307 Eh    ::
         :: -> dispersion             -0.001605682734 Eh    ::
         :: repulsion energy           0.027031693540 Eh    ::
         :: add. restraining           0.000000000000 Eh    ::
         :: total charge               0.000000000002 e     ::
         :::::::::::::::::::::::::::::::::::::::::::::::::::::

      ----------------------------------------------------------- 
     |                   =====================                   |
     |                        A N C O P T                        |
     |                   =====================                   |
     |               Approximate Normal Coordinate               |
     |                Rational Function Optimizer                |
      ----------------------------------------------------------- 

          ...................................................
          :                      SETUP                      :
          :.................................................:
          :   optimization level            normal          :
          :   max. optcycles                   200          :
          :   ANC micro-cycles                  20          :
          :   degrees of freedom                 9          :
          :.................................................:
          :   RF solver                   davidson          :
          :   write xtbopt.log                true          :
          :   linear?                        false          :
          :   energy convergence         0.5000000E-05 Eh   :
          :   grad. convergence          0.1000000E-02 Eh/α :
          :   maxmium RF displ.          1.0000000          :
          :   Hlow (freq-cutoff)         0.1000000E-01      :
          :   Hmax (freq-cutoff)         5.0000000          :
          :   S6 in model hess.         20.0000000          :
          ...................................................

generating ANC from model Hessian ...
Using Lindh-Hessian (1995)
 Shifting diagonal of input Hessian by   1.064868029674353E-002
 Lowest  eigenvalues of input Hessian
    0.010000    0.010612    0.000000    0.000000    0.000000    0.000000
    0.000000    0.000000    0.010811    0.011253    0.012123    0.107838
    0.476355    1.409366    1.728212
 Highest eigenvalues
    0.011253    0.012123    0.107838    0.476355    1.409366    1.728212
 

........................................................................
.............................. CYCLE    1 ..............................
........................................................................

 iter      E             dE          RMSdq      gap      omega  full diag
   1    -13.5591321 -0.135591E+02  0.319E-05    5.39       0.0  T
   2    -13.5591321 -0.506262E-12  0.242E-05    5.39    1846.9  T
   3    -13.5591321 -0.113687E-12  0.196E-05    5.39    2285.7  T
     SCC iter.                  ...        0 min,  0.001 sec
     gradient                   ...        0 min,  0.000 sec
 * total energy  :   -13.5321002 Eh     change       -0.2065903E-11 Eh
   gradient norm :     0.1574745 Eh/α   predicted     0.0000000E+00 (-100.00%)
   displ. norm   :     0.3450049 α      lambda       -0.4281158E-01
   maximum displ.:     0.2358834 α      in ANC's #7, #6, #4, ...

........................................................................
.............................. CYCLE    2 ..............................
........................................................................

 iter      E             dE          RMSdq      gap      omega  full diag
   1    -13.5947118 -0.135947E+02  0.723E-01    5.43       0.0  T
   2    -13.5948475 -0.135637E-03  0.405E-01    5.43       1.0  T
   3    -13.5947895  0.579508E-04  0.239E-01    5.43       1.0  T
   4    -13.5949261 -0.136590E-03  0.494E-02    5.44       1.0  T
   5    -13.5949297 -0.359815E-05  0.300E-02    5.43       1.5  T
   6    -13.5949304 -0.662022E-06  0.922E-03    5.43       4.9  T
   7    -13.5949305 -0.128932E-06  0.603E-03    5.44       7.4  T
   8    -13.5949306 -0.683683E-07  0.429E-03    5.44      10.4  T
   9    -13.5949306 -0.735227E-07  0.903E-04    5.44      49.5  T
  10    -13.5949306 -0.120677E-08  0.487E-04    5.44      91.9  T
     SCC iter.                  ...        0 min,  0.001 sec
     gradient                   ...        0 min,  0.000 sec
 * total energy  :   -13.5686187 Eh     change       -0.3651841E-01 Eh
   gradient norm :     0.0962195 Eh/α   predicted    -0.2395369E-01 ( -34.41%)
   displ. norm   :     0.4921726 α      lambda       -0.4243197E-01
   maximum displ.:     0.4180400 α      in ANC's #7, #2, #3, ...

........................................................................
.............................. CYCLE    3 ..............................
........................................................................

 iter      E             dE          RMSdq      gap      omega  full diag
   1    -13.6367383 -0.136367E+02  0.148E+00    5.47       0.0  T
   2    -13.6378906 -0.115229E-02  0.719E-01    5.47       1.0  T
   3    -13.6378925 -0.183483E-05  0.473E-01    5.46       1.0  T
   4    -13.6381881 -0.295613E-03  0.111E-01    5.47       1.0  T
   5    -13.6382123 -0.242417E-04  0.575E-02    5.47       1.0  T
   6    -13.6382130 -0.689480E-06  0.151E-02    5.47       3.0  T
   7    -13.6382131 -0.836332E-07  0.109E-02    5.47       4.1  T
   8    -13.6382135 -0.374202E-06  0.661E-03    5.47       6.8  T
   9    -13.6382136 -0.146720E-06  0.289E-03    5.47      15.5  T
  10    -13.6382136 -0.321614E-07  0.153E-03    5.47      29.1  T
  11    -13.6382137 -0.896280E-08  0.521E-04    5.47      85.9  T
  12    -13.6382137 -0.718975E-09  0.194E-04    5.47     230.9  T
     SCC iter.                  ...        0 min,  0.001 sec
     gradient                   ...        0 min,  0.000 sec
 * total energy  :   -13.5059276 Eh     change        0.6269102E-01 Eh
   gradient norm :     0.6857389 Eh/α   predicted    -0.2635521E-01 (-142.04%)
   displ. norm   :     0.3414021 α      lambda       -0.2321272E+00
   maximum displ.:     0.3297278 α      in ANC's #7, #6, #8, ...

........................................................................
.............................. CYCLE    4 ..............................
........................................................................

 iter      E             dE          RMSdq      gap      omega  full diag
   1    -13.6059059 -0.136059E+02  0.127E+00    5.44       0.0  T
   2    -13.6071464 -0.124056E-02  0.563E-01    5.43       1.0  T
   3    -13.6076194 -0.472967E-03  0.465E-01    5.45       1.0  T
   4    -13.6078884 -0.268976E-03  0.116E-01    5.44       1.0  T
   5    -13.6079082 -0.198453E-04  0.551E-02    5.44       1.0  T
   6    -13.6079091 -0.922121E-06  0.159E-02    5.44       2.8  T
   7    -13.6079086  0.502578E-06  0.151E-02    5.44       3.0  T
   8    -13.6079097 -0.109259E-05  0.357E-03    5.44      12.5  T
   9    -13.6079098 -0.330076E-07  0.926E-04    5.44      48.3  T
  10    -13.6079098 -0.672159E-09  0.646E-04    5.44      69.3  T
     SCC iter.                  ...        0 min,  0.001 sec
     gradient                   ...        0 min,  0.000 sec
 * total energy  :   -13.5765406 Eh     change       -0.7061298E-01 Eh
   gradient norm :     0.0458783 Eh/α   predicted    -0.1295914E+00 (  83.52%)
   displ. norm   :     0.3201805 α      lambda       -0.2340039E-02
   maximum displ.:     0.2131878 α      in ANC's #4, #2, #3, ...

........................................................................
.............................. CYCLE    5 ..............................
........................................................................

 iter      E             dE          RMSdq      gap      omega  full diag
   1    -13.6086631 -0.136087E+02  0.665E-01    5.25       0.0  T
   2    -13.6087817 -0.118567E-03  0.411E-01    5.25       1.0  T
   3    -13.6087494  0.323004E-04  0.273E-01    5.26       1.0  T
   4    -13.6089113 -0.161940E-03  0.593E-02    5.26       1.0  T
   5    -13.6089172 -0.591408E-05  0.438E-02    5.26       1.0  T
   6    -13.6089221 -0.482043E-05  0.192E-02    5.27       2.3  T
   7    -13.6089231 -0.102257E-05  0.893E-03    5.27       5.0  T
   8    -13.6089233 -0.187049E-06  0.590E-03    5.27       7.6  T
   9    -13.6089234 -0.971136E-07  0.312E-03    5.27      14.4  T
  10    -13.6089234 -0.228124E-07  0.395E-04    5.27     113.2  T
  11    -13.6089234 -0.609893E-09  0.129E-04    5.27     347.9  T
     SCC iter.                  ...        0 min,  0.001 sec
     gradient                   ...        0 min,  0.000 sec
 * total energy  :   -13.5779183 Eh     change       -0.1377729E-02 Eh
   gradient norm :     0.0408890 Eh/α   predicted    -0.1289970E-02 (  -6.37%)
   displ. norm   :     0.1498612 α      lambda       -0.1600426E-02
   maximum displ.:     0.1049990 α      in ANC's #5, #2, #4, ...

........................................................................
.............................. CYCLE    6 ..............................
........................................................................

 iter      E             dE          RMSdq      gap      omega  full diag
   1    -13.6108654 -0.136109E+02  0.210E-01    5.37       0.0  T
   2    -13.6108812 -0.158073E-04  0.140E-01    5.37       1.0  T
   3    -13.6108795  0.167913E-05  0.778E-02    5.36       1.0  T
   4    -13.6108923 -0.127583E-04  0.254E-02    5.36       1.8  T
   5    -13.6108933 -0.999243E-06  0.184E-02    5.36       2.4  T
   6    -13.6108940 -0.687275E-06  0.873E-03    5.36       5.1  T
   7    -13.6108942 -0.232178E-06  0.338E-03    5.36      13.2  T
   8    -13.6108942 -0.271277E-07  0.216E-03    5.36      20.7  T
   9    -13.6108942 -0.115377E-07  0.113E-03    5.36      39.6  T
  10    -13.6108942 -0.326595E-08  0.155E-04    5.36     288.0  T
  11    -13.6108942 -0.147402E-10  0.327E-05    5.36    1368.9  T
     SCC iter.                  ...        0 min,  0.001 sec
     gradient                   ...        0 min,  0.000 sec
 * total energy  :   -13.5788368 Eh     change       -0.9184508E-03 Eh
   gradient norm :     0.0254334 Eh/α   predicted    -0.8181829E-03 ( -10.92%)
   displ. norm   :     0.1932447 α      lambda       -0.1466763E-02
   maximum displ.:     0.1210173 α      in ANC's #5, #4, #2, ...

........................................................................
.............................. CYCLE    7 ..............................
........................................................................

 iter      E             dE          RMSdq      gap      omega  full diag
   1    -13.6170762 -0.136171E+02  0.342E-01    5.46       0.0  T
   2    -13.6171530 -0.767467E-04  0.202E-01    5.46       1.0  T
   3    -13.6171747 -0.216910E-04  0.134E-01    5.46       1.0  T
   4    -13.6171951 -0.204380E-04  0.400E-02    5.46       1.1  T
   5    -13.6171979 -0.274391E-05  0.272E-02    5.46       1.6  T
   6    -13.6171991 -0.121378E-05  0.113E-02    5.46       4.0  T
   7    -13.6171993 -0.212253E-06  0.501E-03    5.45       8.9  T
   8    -13.6171993 -0.647430E-07  0.258E-03    5.45      17.3  T
   9    -13.6171994 -0.180071E-07  0.168E-03    5.45      26.6  T
  10    -13.6171994 -0.995975E-08  0.154E-04    5.45     289.5  T
  11    -13.6171994 -0.269758E-10  0.711E-05    5.45     628.7  T
     SCC iter.                  ...        0 min,  0.001 sec
     gradient                   ...        0 min,  0.000 sec
 * total energy  :   -13.5793374 Eh     change       -0.5005879E-03 Eh
   gradient norm :     0.0201407 Eh/α   predicted    -0.7607699E-03 (  51.98%)
   displ. norm   :     0.2219690 α      lambda       -0.6651870E-03
   maximum displ.:     0.2127664 α      in ANC's #2, #3, #4, ...

........................................................................
.............................. CYCLE    8 ..............................
........................................................................

 iter      E             dE          RMSdq      gap      omega  full diag
   1    -13.6145268 -0.136145E+02  0.309E-01    5.40       0.0  T
   2    -13.6145529 -0.261833E-04  0.179E-01    5.40       1.0  T
   3    -13.6145509  0.200627E-05  0.130E-01    5.40       1.0  T
   4    -13.6145830 -0.320250E-04  0.245E-02    5.40       1.8  T
   5    -13.6145835 -0.510745E-06  0.198E-02    5.40       2.3  T
   6    -13.6145843 -0.852615E-06  0.557E-03    5.41       8.0  T
   7    -13.6145844 -0.422154E-07  0.290E-03    5.41      15.4  T
   8    -13.6145844 -0.155684E-07  0.202E-03    5.41      22.1  T
   9    -13.6145844 -0.143248E-07  0.769E-04    5.41      58.1  T
  10    -13.6145844 -0.166794E-08  0.877E-05    5.41     510.2  T
     SCC iter.                  ...        0 min,  0.001 sec
     gradient                   ...        0 min,  0.000 sec
 * total energy  :   -13.5798663 Eh     change       -0.5289541E-03 Eh
   gradient norm :     0.0148751 Eh/α   predicted    -0.3489809E-03 ( -34.02%)
   displ. norm   :     0.3815260 α      lambda       -0.9575184E-03
   maximum displ.:     0.3408566 α      in ANC's #2, #3, #5, ...

........................................................................
.............................. CYCLE    9 ..............................
........................................................................

 iter      E             dE          RMSdq      gap      omega  full diag
   1    -13.6086796 -0.136087E+02  0.514E-01    5.35       0.0  T
   2    -13.6087384 -0.587761E-04  0.278E-01    5.35       1.0  T
   3    -13.6087356  0.277039E-05  0.230E-01    5.36       1.0  T
   4    -13.6088392 -0.103563E-03  0.252E-02    5.35       1.8  T
   5    -13.6088399 -0.704599E-06  0.196E-02    5.35       2.3  T
   6    -13.6088406 -0.689037E-06  0.775E-03    5.35       5.8  T
   7    -13.6088407 -0.802119E-07  0.428E-03    5.35      10.4  T
   8    -13.6088407 -0.416685E-07  0.174E-03    5.35      25.7  T
   9    -13.6088407 -0.836667E-08  0.107E-03    5.36      41.7  T
  10    -13.6088407 -0.393462E-08  0.245E-04    5.36     182.6  T
  11    -13.6088407 -0.140655E-09  0.776E-05    5.36     576.2  T
     SCC iter.                  ...        0 min,  0.002 sec
     gradient                   ...        0 min,  0.000 sec
 * total energy  :   -13.5800310 Eh     change       -0.1647131E-03 Eh
   gradient norm :     0.0317147 Eh/α   predicted    -0.5484439E-03 ( 232.97%)
   displ. norm   :     0.1693376 α      lambda       -0.1526631E-02
   maximum displ.:     0.1357268 α      in ANC's #4, #2, #5, ...

........................................................................
.............................. CYCLE   10 ..............................
........................................................................

 iter      E             dE          RMSdq      gap      omega  full diag
   1    -13.6126080 -0.136126E+02  0.207E-01    5.37       0.0  T
   2    -13.6126117 -0.374171E-05  0.128E-01    5.37       1.0  T
   3    -13.6126146 -0.284123E-05  0.209E-02    5.37       2.1  T
   4    -13.6126148 -0.265085E-06  0.154E-02    5.37       2.9  T
   5    -13.6126151 -0.280522E-06  0.627E-03    5.37       7.1  T
   6    -13.6126152 -0.355111E-07  0.300E-03    5.37      14.9  T
   7    -13.6126152 -0.252356E-07  0.128E-03    5.37      35.0  T
   8    -13.6126152 -0.239895E-08  0.601E-04    5.37      74.4  T
   9    -13.6126152 -0.434003E-09  0.278E-04    5.37     161.0  T
     SCC iter.                  ...        0 min,  0.001 sec
     gradient                   ...        0 min,  0.000 sec
 * total energy  :   -13.5805057 Eh     change       -0.4746188E-03 Eh
   gradient norm :     0.0303592 Eh/α   predicted    -0.7852050E-03 (  65.44%)
   displ. norm   :     0.2157261 α      lambda       -0.1445648E-02
   maximum displ.:     0.1188627 α      in ANC's #1, #2, #3, ...

........................................................................
.............................. CYCLE   11 ..............................
........................................................................

 iter      E             dE          RMSdq      gap      omega  full diag
   1    -13.6170527 -0.136171E+02  0.478E-01    5.61       0.0  T
   2    -13.6172909 -0.238171E-03  0.302E-01    5.61       1.0  T
   3    -13.6174198 -0.128916E-03  0.188E-01    5.60       1.0  T
   4    -13.6174481 -0.283212E-04  0.548E-02    5.60       1.0  T
   5    -13.6174527 -0.456588E-05  0.412E-02    5.60       1.1  T
   6    -13.6174573 -0.458824E-05  0.207E-02    5.59       2.2  T
   7    -13.6174566  0.698599E-06  0.238E-02    5.59       1.9  T
   8    -13.6174591 -0.254319E-05  0.444E-03    5.58      10.1  T
   9    -13.6174592 -0.728610E-07  0.407E-04    5.58     109.9  T
  10    -13.6174592 -0.114129E-09  0.298E-04    5.58     150.0  T
     SCC iter.                  ...        0 min,  0.001 sec
     gradient                   ...        0 min,  0.000 sec
 * total energy  :   -13.5805153 Eh     change       -0.9666306E-05 Eh
   gradient norm :     0.0131439 Eh/α   predicted    -0.7564624E-03 (7725.76%)
   displ. norm   :     0.2164437 α      lambda       -0.1141173E-02
   maximum displ.:     0.1871546 α      in ANC's #2, #4, #3, ...

........................................................................
.............................. CYCLE   12 ..............................
........................................................................

 iter      E             dE          RMSdq      gap      omega  full diag
   1    -13.6160171 -0.136160E+02  0.469E-01    5.40       0.0  T
   2    -13.6161509 -0.133836E-03  0.309E-01    5.39       1.0  T
   3    -13.6162884 -0.137549E-03  0.194E-01    5.40       1.0  T
   4    -13.6163229 -0.344693E-04  0.512E-02    5.40       1.0  T
   5    -13.6163262 -0.331551E-05  0.411E-02    5.40       1.1  T
   6    -13.6163306 -0.434979E-05  0.208E-02    5.41       2.2  T
   7    -13.6163319 -0.129337E-05  0.964E-03    5.42       4.6  T
   8    -13.6163322 -0.321516E-06  0.561E-03    5.42       8.0  T
   9    -13.6163323 -0.821296E-07  0.249E-03    5.42      18.0  T
  10    -13.6163323 -0.151505E-07  0.314E-04    5.42     142.4  T
  11    -13.6163323 -0.221567E-09  0.779E-05    5.42     574.1  T
     SCC iter.                  ...        0 min,  0.001 sec
     gradient                   ...        0 min,  0.000 sec
 * total energy  :   -13.5811778 Eh     change       -0.6624958E-03 Eh
   gradient norm :     0.0138796 Eh/α   predicted    -0.5973133E-03 (  -9.84%)
   displ. norm   :     0.2976865 α      lambda       -0.8941347E-03
   maximum displ.:     0.2317400 α      in ANC's #2, #5, #3, ...

........................................................................
.............................. CYCLE   13 ..............................
........................................................................

 iter      E             dE          RMSdq      gap      omega  full diag
   1    -13.6108270 -0.136108E+02  0.401E-01    5.39       0.0  T
   2    -13.6108590 -0.319712E-04  0.214E-01    5.38       1.0  T
   3    -13.6108574  0.158769E-05  0.186E-01    5.39       1.0  T
   4    -13.6109279 -0.704883E-04  0.150E-02    5.39       3.0  T
   5    -13.6109282 -0.268432E-06  0.102E-02    5.39       4.4  T
   6    -13.6109283 -0.988193E-07  0.423E-03    5.39      10.6  T
   7    -13.6109283 -0.197435E-07  0.269E-03    5.39      16.6  T
   8    -13.6109283 -0.165962E-07  0.825E-04    5.39      54.2  T
   9    -13.6109283 -0.128344E-08  0.425E-04    5.39     105.2  T
     SCC iter.                  ...        0 min,  0.001 sec
     gradient                   ...        0 min,  0.000 sec
 * total energy  :   -13.5812975 Eh     change       -0.1196781E-03 Eh
   gradient norm :     0.0250969 Eh/α   predicted    -0.4866844E-03 ( 306.66%)
   displ. norm   :     0.0980276 α      lambda       -0.8086369E-03
   maximum displ.:     0.0610283 α      in ANC's #1, #2, #5, ...

........................................................................
.............................. CYCLE   14 ..............................
........................................................................

 iter      E             dE          RMSdq      gap      omega  full diag
   1    -13.6147686 -0.136148E+02  0.174E-01    5.45       0.0  T
   2    -13.6147892 -0.205856E-04  0.101E-01    5.45       1.0  T
   3    -13.6148122 -0.230234E-04  0.683E-02    5.45       1.0  T
   4    -13.6148176 -0.531792E-05  0.144E-02    5.45       3.1  T
   5    -13.6148179 -0.328932E-06  0.103E-02    5.45       4.3  T
   6    -13.6148181 -0.232231E-06  0.501E-03    5.45       8.9  T
   7    -13.6148182 -0.651872E-07  0.328E-03    5.45      13.6  T
   8    -13.6148182 -0.420734E-07  0.712E-04    5.44      62.8  T
   9    -13.6148182 -0.732813E-09  0.313E-04    5.44     142.8  T
     SCC iter.                  ...        0 min,  0.001 sec
     gradient                   ...        0 min,  0.000 sec
 * total energy  :   -13.5817890 Eh     change       -0.4915182E-03 Eh
   gradient norm :     0.0104799 Eh/α   predicted    -0.4082022E-03 ( -16.95%)
   displ. norm   :     0.1554627 α      lambda       -0.4385858E-03
   maximum displ.:     0.1024237 α      in ANC's #2, #1, #9, ...

........................................................................
.............................. CYCLE   15 ..............................
........................................................................

 iter      E             dE          RMSdq      gap      omega  full diag
   1    -13.6161907 -0.136162E+02  0.217E-01    5.45       0.0  T
   2    -13.6161920 -0.131794E-05  0.131E-01    5.45       1.0  T
   3    -13.6161887  0.335552E-05  0.357E-02    5.45       1.3  T
   4    -13.6161936 -0.496284E-05  0.123E-02    5.45       3.6  T
   5    -13.6161938 -0.167338E-06  0.749E-03    5.45       6.0  T
   6    -13.6161939 -0.111444E-06  0.263E-03    5.45      17.0  T
   7    -13.6161939 -0.328794E-08  0.653E-04    5.45      68.5  T
   8    -13.6161939 -0.199943E-09  0.178E-04    5.45     250.8  T
     SCC iter.                  ...        0 min,  0.001 sec
     gradient                   ...        0 min,  0.000 sec
 * total energy  :   -13.5821366 Eh     change       -0.3475505E-03 Eh
   gradient norm :     0.0089305 Eh/α   predicted    -0.2245936E-03 ( -35.38%)
   displ. norm   :     0.3176751 α      lambda       -0.8354541E-03
   maximum displ.:     0.2079870 α      in ANC's #2, #9, #1, ...

........................................................................
.............................. CYCLE   16 ..............................
........................................................................

 iter      E             dE          RMSdq      gap      omega  full diag
   1    -13.6170534 -0.136171E+02  0.403E-01    5.51       0.0  T
   2    -13.6170586 -0.513842E-05  0.249E-01    5.51       1.0  T
   3    -13.6170537  0.491863E-05  0.512E-02    5.51       1.0  T
   4    -13.6170637 -0.100231E-04  0.243E-02    5.51       1.8  T
   5    -13.6170642 -0.559478E-06  0.182E-02    5.50       2.5  T
   6    -13.6170650 -0.754471E-06  0.818E-03    5.50       5.5  T
   7    -13.6170651 -0.143422E-06  0.310E-03    5.50      14.4  T
   8    -13.6170652 -0.180794E-07  0.230E-03    5.50      19.4  T
   9    -13.6170652 -0.151034E-07  0.123E-03    5.50      36.2  T
  10    -13.6170652 -0.464108E-08  0.134E-04    5.50     332.7  T
  11    -13.6170652 -0.673595E-11  0.176E-05    5.50    2540.3  T
     SCC iter.                  ...        0 min,  0.001 sec
     gradient                   ...        0 min,  0.000 sec
 * total energy  :   -13.5827288 Eh     change       -0.5921873E-03 Eh
   gradient norm :     0.0042752 Eh/α   predicted    -0.4598863E-03 ( -22.34%)
   displ. norm   :     0.5217837 α      lambda       -0.7673544E-03
   maximum displ.:     0.3965123 α      in ANC's #2, #9, #1, ...

........................................................................
.............................. CYCLE   17 ..............................
........................................................................

 iter      E             dE          RMSdq      gap      omega  full diag
   1    -13.6099491 -0.136099E+02  0.792E-01    5.19       0.0  T
   2    -13.6101425 -0.193308E-03  0.550E-01    5.20       1.0  T
   3    -13.6106731 -0.530638E-03  0.337E-01    5.20       1.0  T
   4    -13.6107968 -0.123710E-03  0.688E-02    5.20       1.0  T
   5    -13.6108027 -0.590363E-05  0.556E-02    5.21       1.0  T
   6    -13.6108092 -0.648925E-05  0.303E-02    5.22       1.5  T
   7    -13.6108119 -0.272240E-05  0.140E-02    5.22       3.2  T
   8    -13.6108126 -0.692053E-06  0.837E-03    5.22       5.3  T
   9    -13.6108128 -0.167625E-06  0.455E-03    5.22       9.8  T
  10    -13.6108128 -0.461668E-07  0.257E-03    5.23      17.4  T
  11    -13.6108129 -0.328227E-07  0.138E-04    5.23     322.9  T
  12    -13.6108129 -0.696154E-11  0.151E-05    5.23    2963.4  T
     SCC iter.                  ...        0 min,  0.001 sec
     gradient                   ...        0 min,  0.000 sec
 * total energy  :   -13.5818771 Eh     change        0.8516763E-03 Eh
   gradient norm :     0.0380976 Eh/α   predicted    -0.4881350E-03 (-157.31%)
   displ. norm   :     0.2542639 α      lambda       -0.2893472E-02
   maximum displ.:     0.2121764 α      in ANC's #2, #4, #9, ...

........................................................................
.............................. CYCLE   18 ..............................
........................................................................

 iter      E             dE          RMSdq      gap      omega  full diag
   1    -13.6163292 -0.136163E+02  0.528E-01    5.56       0.0  T
   2    -13.6165796 -0.250336E-03  0.413E-01    5.56       1.0  T
   3    -13.6169159 -0.336378E-03  0.223E-01    5.55       1.0  T
   4    -13.6169429 -0.269675E-04  0.663E-02    5.55       1.0  T
   5    -13.6169497 -0.682714E-05  0.501E-02    5.54       1.0  T
   6    -13.6169557 -0.598587E-05  0.282E-02    5.53       1.6  T
   7    -13.6169545  0.119698E-05  0.330E-02    5.53       1.4  T
   8    -13.6169594 -0.492571E-05  0.777E-03    5.53       5.8  T
   9    -13.6169597 -0.222798E-06  0.208E-03    5.53      21.5  T
  10    -13.6169597 -0.317539E-08  0.155E-03    5.53      28.8  T
  11    -13.6169597 -0.921604E-08  0.989E-05    5.53     452.3  T
  12    -13.6169597 -0.477662E-11  0.111E-05    5.53    4025.8  T
     SCC iter.                  ...        0 min,  0.001 sec
     gradient                   ...        0 min,  0.000 sec
 * total energy  :   -13.5830365 Eh     change       -0.1159389E-02 Eh
   gradient norm :     0.0041970 Eh/α   predicted    -0.1540267E-02 (  32.85%)
   displ. norm   :     0.0816255 α      lambda       -0.1602106E-03
   maximum displ.:     0.0524420 α      in ANC's #4, #2, #9, ...

........................................................................
.............................. CYCLE   19 ..............................
........................................................................

 iter      E             dE          RMSdq      gap      omega  full diag
   1    -13.6176738 -0.136177E+02  0.141E-01    5.47       0.0  T
   2    -13.6176813 -0.751458E-05  0.103E-01    5.48       1.0  T
   3    -13.6176924 -0.111123E-04  0.607E-02    5.48       1.0  T
   4    -13.6176966 -0.416524E-05  0.129E-02    5.48       3.5  T
   5    -13.6176968 -0.210949E-06  0.937E-03    5.48       4.8  T
   6    -13.6176970 -0.199772E-06  0.570E-03    5.48       7.8  T
   7    -13.6176971 -0.108854E-06  0.214E-03    5.48      20.9  T
   8    -13.6176971 -0.105089E-07  0.140E-03    5.48      32.0  T
   9    -13.6176971 -0.448410E-08  0.729E-04    5.48      61.3  T
  10    -13.6176971 -0.117379E-08  0.487E-05    5.48     919.1  T
     SCC iter.                  ...        0 min,  0.001 sec
     gradient                   ...        0 min,  0.000 sec
 * total energy  :   -13.5830975 Eh     change       -0.6104244E-04 Eh
   gradient norm :     0.0080263 Eh/α   predicted    -0.8063852E-04 (  32.10%)
   displ. norm   :     0.1463351 α      lambda       -0.1887973E-03
   maximum displ.:     0.1022299 α      in ANC's #2, #9, #1, ...

........................................................................
.............................. CYCLE   20 ..............................
........................................................................

 iter      E             dE          RMSdq      gap      omega  full diag
   1    -13.6172054 -0.136172E+02  0.204E-01    5.45       0.0  T
   2    -13.6172093 -0.398565E-05  0.128E-01    5.45       1.0  T
   3    -13.6171940  0.153766E-04  0.829E-02    5.45       1.0  T
   4    -13.6172173 -0.233728E-04  0.132E-02    5.45       3.4  T
   5    -13.6172176 -0.257217E-06  0.664E-03    5.45       6.7  T
   6    -13.6172177 -0.905976E-07  0.311E-03    5.45      14.4  T
   7    -13.6172177 -0.603017E-08  0.164E-03    5.45      27.2  T
   8    -13.6172177 -0.697704E-08  0.909E-04    5.45      49.2  T
   9    -13.6172177 -0.239068E-08  0.471E-04    5.45      95.0  T
     SCC iter.                  ...        0 min,  0.001 sec
     gradient                   ...        0 min,  0.000 sec
 * total energy  :   -13.5832251 Eh     change       -0.1276229E-03 Eh
   gradient norm :     0.0066018 Eh/α   predicted    -0.9642253E-04 ( -24.45%)
   displ. norm   :     0.1687307 α      lambda       -0.1462664E-03
   maximum displ.:     0.1070401 α      in ANC's #2, #9, #1, ...
 * RMSD in coord.:     1.1719387 α      energy gain  -0.5112489E-01 Eh

generating ANC from model Hessian ...
Using Lindh-Hessian (1995)
 Shifting diagonal of input Hessian by   9.726346971663573E-003
 Lowest  eigenvalues of input Hessian
    0.000000    0.000000    0.000000    0.000000    0.000000    0.000000
    0.010000    0.010225    0.016040    0.023251    0.057033    0.295985
    1.173121    1.400305    1.725205
 Highest eigenvalues
    0.023251    0.057033    0.295985    1.173121    1.400305    1.725205
 

........................................................................
.............................. CYCLE   21 ..............................
........................................................................

 iter      E             dE          RMSdq      gap      omega  full diag
   1    -13.6163275 -0.136163E+02  0.217E-01    5.46       0.0  T
   2    -13.6163291 -0.162351E-05  0.132E-01    5.46       1.0  T
   3    -13.6163184  0.107252E-04  0.546E-02    5.46       1.0  T
   4    -13.6163316 -0.131959E-04  0.122E-02    5.46       3.7  T
   5    -13.6163318 -0.172222E-06  0.709E-03    5.46       6.3  T
   6    -13.6163319 -0.945785E-07  0.312E-03    5.46      14.3  T
   7    -13.6163319 -0.793458E-08  0.859E-04    5.46      52.1  T
   8    -13.6163319 -0.801709E-09  0.375E-04    5.46     119.2  T
     SCC iter.                  ...        0 min,  0.001 sec
     gradient                   ...        0 min,  0.000 sec
 * total energy  :   -13.5833132 Eh     change       -0.8802896E-04 Eh
   gradient norm :     0.0087638 Eh/α   predicted     0.0000000E+00 (-100.00%)
   displ. norm   :     0.0982971 α      lambda       -0.1742768E-03
   maximum displ.:     0.0887526 α      in ANC's #1, #4, #3, ...

........................................................................
.............................. CYCLE   22 ..............................
........................................................................

 iter      E             dE          RMSdq      gap      omega  full diag
   1    -13.6168195 -0.136168E+02  0.148E-01    5.47       0.0  T
   2    -13.6168217 -0.222645E-05  0.914E-02    5.47       1.0  T
   3    -13.6168159  0.580644E-05  0.476E-02    5.47       1.0  T
   4    -13.6168240 -0.807688E-05  0.113E-02    5.47       4.0  T
   5    -13.6168241 -0.126831E-06  0.872E-03    5.47       5.1  T
   6    -13.6168242 -0.118933E-06  0.314E-03    5.47      14.2  T
   7    -13.6168242 -0.113324E-07  0.652E-04    5.47      68.6  T
   8    -13.6168242 -0.969125E-09  0.391E-04    5.47     114.3  T
     SCC iter.                  ...        0 min,  0.001 sec
     gradient                   ...        0 min,  0.000 sec
 * total energy  :   -13.5834253 Eh     change       -0.1121226E-03 Eh
   gradient norm :     0.0060478 Eh/α   predicted    -0.8798219E-04 ( -21.53%)
   displ. norm   :     0.1062959 α      lambda       -0.1187084E-03
   maximum displ.:     0.0806793 α      in ANC's #1, #2, #3, ...

........................................................................
.............................. CYCLE   23 ..............................
........................................................................

 iter      E             dE          RMSdq      gap      omega  full diag
   1    -13.6175684 -0.136176E+02  0.150E-01    5.48       0.0  T
   2    -13.6175692 -0.750299E-06  0.913E-02    5.48       1.0  T
   3    -13.6175667  0.251749E-05  0.287E-02    5.48       1.6  T
   4    -13.6175702 -0.349868E-05  0.956E-03    5.48       4.7  T
   5    -13.6175703 -0.937583E-07  0.621E-03    5.48       7.2  T
   6    -13.6175703 -0.754820E-07  0.216E-03    5.48      20.7  T
   7    -13.6175703 -0.358547E-08  0.583E-04    5.48      76.7  T
   8    -13.6175703 -0.375213E-09  0.391E-04    5.48     114.5  T
     SCC iter.                  ...        0 min,  0.001 sec
     gradient                   ...        0 min,  0.000 sec
 * total energy  :   -13.5835145 Eh     change       -0.8917277E-04 Eh
   gradient norm :     0.0035377 Eh/α   predicted    -0.6002300E-04 ( -32.69%)
   displ. norm   :     0.1657449 α      lambda       -0.1131576E-03
   maximum displ.:     0.1493716 α      in ANC's #1, #2, #9, ...

........................................................................
.............................. CYCLE   24 ..............................
........................................................................

 iter      E             dE          RMSdq      gap      omega  full diag
   1    -13.6172123 -0.136172E+02  0.233E-01    5.48       0.0  T
   2    -13.6172139 -0.164145E-05  0.144E-01    5.48       1.0  T
   3    -13.6172086  0.535858E-05  0.406E-02    5.48       1.1  T
   4    -13.6172161 -0.752807E-05  0.144E-02    5.48       3.1  T
   5    -13.6172164 -0.340664E-06  0.483E-03    5.48       9.3  T
   6    -13.6172165 -0.229632E-07  0.284E-03    5.48      15.8  T
   7    -13.6172165 -0.553613E-08  0.738E-04    5.48      60.6  T
   8    -13.6172165 -0.573250E-09  0.198E-04    5.48     225.9  T
     SCC iter.                  ...        0 min,  0.001 sec
     gradient                   ...        0 min,  0.000 sec
 * total energy  :   -13.5835946 Eh     change       -0.8017670E-04 Eh
   gradient norm :     0.0061601 Eh/α   predicted    -0.5813234E-04 ( -27.49%)
   displ. norm   :     0.1664373 α      lambda       -0.1079833E-03
   maximum displ.:     0.1431524 α      in ANC's #1, #2, #3, ...

........................................................................
.............................. CYCLE   25 ..............................
........................................................................

 iter      E             dE          RMSdq      gap      omega  full diag
   1    -13.6170540 -0.136171E+02  0.221E-01    5.47       0.0  T
   2    -13.6170551 -0.115549E-05  0.136E-01    5.47       1.0  T
   3    -13.6170507  0.442308E-05  0.353E-02    5.47       1.3  T
   4    -13.6170567 -0.596320E-05  0.117E-02    5.47       3.8  T
   5    -13.6170569 -0.234689E-06  0.395E-03    5.47      11.3  T
   6    -13.6170569 -0.125807E-07  0.222E-03    5.47      20.1  T
   7    -13.6170569 -0.319736E-08  0.645E-04    5.47      69.4  T
   8    -13.6170569 -0.575612E-09  0.192E-04    5.47     232.4  T
     SCC iter.                  ...        0 min,  0.001 sec
     gradient                   ...        0 min,  0.000 sec
 * total energy  :   -13.5836700 Eh     change       -0.7537646E-04 Eh
   gradient norm :     0.0069871 Eh/α   predicted    -0.5548703E-04 ( -26.39%)
   displ. norm   :     0.1422002 α      lambda       -0.1499386E-03
   maximum displ.:     0.1070464 α      in ANC's #1, #3, #2, ...

........................................................................
.............................. CYCLE   26 ..............................
........................................................................

 iter      E             dE          RMSdq      gap      omega  full diag
   1    -13.6177594 -0.136178E+02  0.171E-01    5.50       0.0  T
   2    -13.6177617 -0.234474E-05  0.104E-01    5.50       1.0  T
   3    -13.6177504  0.113129E-04  0.650E-02    5.50       1.0  T
   4    -13.6177659 -0.154952E-04  0.992E-03    5.50       4.5  T
   5    -13.6177660 -0.832288E-07  0.791E-03    5.50       5.7  T
   6    -13.6177661 -0.136770E-06  0.371E-03    5.50      12.0  T
   7    -13.6177662 -0.327565E-07  0.148E-03    5.50      30.3  T
   8    -13.6177662 -0.553551E-08  0.104E-03    5.50      42.9  T
   9    -13.6177662 -0.291049E-08  0.510E-04    5.50      87.7  T
  10    -13.6177662 -0.691056E-09  0.820E-05    5.50     545.7  T
     SCC iter.                  ...        0 min,  0.001 sec
     gradient                   ...        0 min,  0.000 sec
 * total energy  :   -13.5837525 Eh     change       -0.8246771E-04 Eh
   gradient norm :     0.0031007 Eh/α   predicted    -0.7648556E-04 (  -7.25%)
   displ. norm   :     0.2450429 α      lambda       -0.1329928E-03
   maximum displ.:     0.2244257 α      in ANC's #1, #3, #2, ...

........................................................................
.............................. CYCLE   27 ..............................
........................................................................

 iter      E             dE          RMSdq      gap      omega  full diag
   1    -13.6155232 -0.136155E+02  0.332E-01    5.48       0.0  T
   2    -13.6155285 -0.527545E-05  0.207E-01    5.48       1.0  T
   3    -13.6154803  0.481428E-04  0.111E-01    5.48       1.0  T
   4    -13.6155385 -0.582045E-04  0.174E-02    5.48       2.6  T
   5    -13.6155389 -0.409677E-06  0.802E-03    5.48       5.6  T
   6    -13.6155390 -0.109047E-06  0.451E-03    5.48       9.9  T
   7    -13.6155390 -0.127225E-07  0.220E-03    5.48      20.3  T
   8    -13.6155391 -0.139291E-07  0.621E-04    5.48      72.0  T
   9    -13.6155391 -0.655493E-09  0.408E-04    5.48     109.6  T
     SCC iter.                  ...        0 min,  0.001 sec
     gradient                   ...        0 min,  0.000 sec
 * total energy  :   -13.5837102 Eh     change        0.4231117E-04 Eh
   gradient norm :     0.0147120 Eh/α   predicted    -0.7048835E-04 (-266.60%)
   displ. norm   :     0.1518244 α      lambda       -0.2905552E-03
   maximum displ.:     0.1363851 α      in ANC's #1, #2, #3, ...

........................................................................
.............................. CYCLE   28 ..............................
........................................................................

 iter      E             dE          RMSdq      gap      omega  full diag
   1    -13.6179895 -0.136180E+02  0.213E-01    5.52       0.0  T
   2    -13.6179962 -0.675069E-05  0.139E-01    5.51       1.0  T
   3    -13.6179873  0.897388E-05  0.874E-02    5.51       1.0  T
   4    -13.6180100 -0.226896E-04  0.123E-02    5.51       3.6  T
   5    -13.6180101 -0.133786E-06  0.947E-03    5.51       4.7  T
   6    -13.6180103 -0.197080E-06  0.426E-03    5.51      10.5  T
   7    -13.6180103 -0.339877E-07  0.173E-03    5.51      25.8  T
   8    -13.6180103 -0.885031E-08  0.119E-03    5.51      37.5  T
   9    -13.6180103 -0.453250E-08  0.549E-04    5.51      81.5  T
  10    -13.6180103 -0.753001E-09  0.101E-04    5.51     441.1  T
     SCC iter.                  ...        0 min,  0.001 sec
     gradient                   ...        0 min,  0.000 sec
 * total energy  :   -13.5838056 Eh     change       -0.9547088E-04 Eh
   gradient norm :     0.0015195 Eh/α   predicted    -0.1486250E-03 (  55.68%)
   displ. norm   :     0.1111314 α      lambda       -0.3311642E-04
   maximum displ.:     0.0831567 α      in ANC's #1, #2, #3, ...

........................................................................
.............................. CYCLE   29 ..............................
........................................................................

 iter      E             dE          RMSdq      gap      omega  full diag
   1    -13.6177663 -0.136178E+02  0.170E-01    5.47       0.0  T
   2    -13.6177699 -0.368312E-05  0.115E-01    5.47       1.0  T
   3    -13.6177608  0.910194E-05  0.685E-02    5.48       1.0  T
   4    -13.6177778 -0.169683E-04  0.121E-02    5.48       3.7  T
   5    -13.6177779 -0.141322E-06  0.947E-03    5.48       4.7  T
   6    -13.6177782 -0.218194E-06  0.388E-03    5.48      11.5  T
   7    -13.6177782 -0.312955E-07  0.189E-03    5.48      23.7  T
   8    -13.6177782 -0.813870E-08  0.127E-03    5.48      35.3  T
   9    -13.6177782 -0.454038E-08  0.727E-04    5.48      61.5  T
  10    -13.6177782 -0.147219E-08  0.594E-05    5.48     752.6  T
     SCC iter.                  ...        0 min,  0.001 sec
     gradient                   ...        0 min,  0.000 sec
 * total energy  :   -13.5838279 Eh     change       -0.2227593E-04 Eh
   gradient norm :     0.0036085 Eh/α   predicted    -0.1665010E-04 ( -25.26%)
   displ. norm   :     0.0879624 α      lambda       -0.3832403E-04
   maximum displ.:     0.0808243 α      in ANC's #1, #2, #9, ...

........................................................................
.............................. CYCLE   30 ..............................
........................................................................

 iter      E             dE          RMSdq      gap      omega  full diag
   1    -13.6174068 -0.136174E+02  0.125E-01    5.48       0.0  T
   2    -13.6174071 -0.338234E-06  0.767E-02    5.48       1.0  T
   3    -13.6174072 -0.103298E-06  0.966E-03    5.48       4.6  T
   4    -13.6174074 -0.245290E-06  0.634E-03    5.48       7.1  T
   5    -13.6174075 -0.458332E-07  0.360E-03    5.48      12.4  T
   6    -13.6174075 -0.253058E-07  0.180E-03    5.48      24.9  T
   7    -13.6174075 -0.304019E-08  0.398E-04    5.48     112.4  T
   8    -13.6174075 -0.917399E-10  0.193E-04    5.48     231.9  T
     SCC iter.                  ...        0 min,  0.001 sec
     gradient                   ...        0 min,  0.000 sec
 * total energy  :   -13.5838530 Eh     change       -0.2511005E-04 Eh
   gradient norm :     0.0050700 Eh/α   predicted    -0.1930953E-04 ( -23.10%)
   displ. norm   :     0.0567677 α      lambda       -0.3630175E-04
   maximum displ.:     0.0506484 α      in ANC's #1, #9, #6, ...

........................................................................
.............................. CYCLE   31 ..............................
........................................................................

 iter      E             dE          RMSdq      gap      omega  full diag
   1    -13.6175548 -0.136176E+02  0.834E-02    5.50       0.0  T
   2    -13.6175558 -0.993870E-06  0.529E-02    5.50       1.0  T
   3    -13.6175539  0.184693E-05  0.355E-02    5.50       1.3  T
   4    -13.6175577 -0.379843E-05  0.600E-03    5.50       7.5  T
   5    -13.6175577 -0.329343E-07  0.481E-03    5.50       9.3  T
   6    -13.6175578 -0.557992E-07  0.226E-03    5.50      19.7  T
   7    -13.6175578 -0.147904E-07  0.895E-04    5.50      50.0  T
   8    -13.6175578 -0.171777E-08  0.623E-04    5.50      71.8  T
     SCC iter.                  ...        0 min,  0.001 sec
     gradient                   ...        0 min,  0.000 sec
 * total energy  :   -13.5838793 Eh     change       -0.2629539E-04 Eh
   gradient norm :     0.0043902 Eh/α   predicted    -0.1821028E-04 ( -30.75%)
   displ. norm   :     0.0862015 α      lambda       -0.3769715E-04
   maximum displ.:     0.0725562 α      in ANC's #1, #2, #9, ...

........................................................................
.............................. CYCLE   32 ..............................
........................................................................

 iter      E             dE          RMSdq      gap      omega  full diag
   1    -13.6178444 -0.136178E+02  0.130E-01    5.51       0.0  T
   2    -13.6178449 -0.477225E-06  0.787E-02    5.51       1.0  T
   3    -13.6178420  0.287649E-05  0.278E-02    5.51       1.6  T
   4    -13.6178456 -0.357298E-05  0.681E-03    5.51       6.6  T
   5    -13.6178456 -0.525106E-07  0.416E-03    5.51      10.7  T
   6    -13.6178456 -0.344290E-07  0.170E-03    5.51      26.3  T
   7    -13.6178457 -0.274388E-08  0.541E-04    5.51      82.7  T
   8    -13.6178457 -0.412662E-09  0.373E-04    5.51     120.0  T
     SCC iter.                  ...        0 min,  0.001 sec
     gradient                   ...        0 min,  0.000 sec
 * total energy  :   -13.5839083 Eh     change       -0.2900483E-04 Eh
   gradient norm :     0.0031600 Eh/α   predicted    -0.1898830E-04 ( -34.53%)
   displ. norm   :     0.1537770 α      lambda       -0.3990133E-04
   maximum displ.:     0.1272864 α      in ANC's #1, #2, #9, ...

........................................................................
.............................. CYCLE   33 ..............................
........................................................................

 iter      E             dE          RMSdq      gap      omega  full diag
   1    -13.6174948 -0.136175E+02  0.235E-01    5.49       0.0  T
   2    -13.6174967 -0.187313E-05  0.147E-01    5.49       1.0  T
   3    -13.6174789  0.178573E-04  0.628E-02    5.49       1.0  T
   4    -13.6174999 -0.210568E-04  0.124E-02    5.49       3.6  T
   5    -13.6175001 -0.188752E-06  0.732E-03    5.49       6.1  T
   6    -13.6175002 -0.107755E-06  0.302E-03    5.49      14.8  T
   7    -13.6175002 -0.592131E-08  0.128E-03    5.49      34.9  T
   8    -13.6175002 -0.354980E-08  0.687E-04    5.49      65.1  T
   9    -13.6175002 -0.145312E-08  0.359E-04    5.49     124.5  T
     SCC iter.                  ...        0 min,  0.001 sec
     gradient                   ...        0 min,  0.000 sec
 * total energy  :   -13.5839284 Eh     change       -0.2005930E-04 Eh
   gradient norm :     0.0050420 Eh/α   predicted    -0.2042321E-04 (   1.81%)
   displ. norm   :     0.0868343 α      lambda       -0.6996421E-04
   maximum displ.:     0.0582622 α      in ANC's #1, #2, #9, ...

........................................................................
.............................. CYCLE   34 ..............................
........................................................................

 iter      E             dE          RMSdq      gap      omega  full diag
   1    -13.6186650 -0.136187E+02  0.139E-01    5.51       0.0  T
   2    -13.6186662 -0.114472E-05  0.827E-02    5.51       1.0  T
   3    -13.6186586  0.753915E-05  0.503E-02    5.51       1.0  T
   4    -13.6186683 -0.971563E-05  0.726E-03    5.51       6.2  T
   5    -13.6186684 -0.507228E-07  0.486E-03    5.51       9.2  T
   6    -13.6186684 -0.446178E-07  0.225E-03    5.51      19.8  T
   7    -13.6186685 -0.690135E-08  0.737E-04    5.51      60.7  T
   8    -13.6186685 -0.931630E-09  0.523E-04    5.51      85.4  T
     SCC iter.                  ...        0 min,  0.001 sec
     gradient                   ...        0 min,  0.000 sec
 * total energy  :   -13.5839445 Eh     change       -0.1611730E-04 Eh
   gradient norm :     0.0040791 Eh/α   predicted    -0.3524409E-04 ( 118.67%)
   displ. norm   :     0.1229403 α      lambda       -0.4092348E-04
   maximum displ.:     0.1043630 α      in ANC's #1, #2, #9, ...

........................................................................
.............................. CYCLE   35 ..............................
........................................................................

 iter      E             dE          RMSdq      gap      omega  full diag
   1    -13.6176992 -0.136177E+02  0.192E-01    5.49       0.0  T
   2    -13.6177009 -0.172808E-05  0.120E-01    5.49       1.0  T
   3    -13.6176850  0.159144E-04  0.622E-02    5.49       1.0  T
   4    -13.6177042 -0.191661E-04  0.981E-03    5.49       4.6  T
   5    -13.6177043 -0.100451E-06  0.631E-03    5.49       7.1  T
   6    -13.6177044 -0.756581E-07  0.276E-03    5.49      16.2  T
   7    -13.6177044 -0.624944E-08  0.115E-03    5.49      39.0  T
   8    -13.6177044 -0.330106E-08  0.529E-04    5.49      84.6  T
   9    -13.6177044 -0.680153E-09  0.335E-04    5.49     133.3  T
     SCC iter.                  ...        0 min,  0.001 sec
     gradient                   ...        0 min,  0.000 sec
 * total energy  :   -13.5839596 Eh     change       -0.1508447E-04 Eh
   gradient norm :     0.0034595 Eh/α   predicted    -0.2077139E-04 (  37.70%)
   displ. norm   :     0.0644346 α      lambda       -0.2063967E-04
   maximum displ.:     0.0490942 α      in ANC's #1, #2, #9, ...

........................................................................
.............................. CYCLE   36 ..............................
........................................................................

 iter      E             dE          RMSdq      gap      omega  full diag
   1    -13.6181781 -0.136182E+02  0.109E-01    5.52       0.0  T
   2    -13.6181799 -0.187982E-05  0.741E-02    5.52       1.0  T
   3    -13.6181776  0.236875E-05  0.443E-02    5.52       1.0  T
   4    -13.6181838 -0.620660E-05  0.774E-03    5.52       5.8  T
   5    -13.6181838 -0.551487E-07  0.621E-03    5.52       7.2  T
   6    -13.6181839 -0.966091E-07  0.261E-03    5.52      17.1  T
   7    -13.6181839 -0.173880E-07  0.110E-03    5.52      40.7  T
   8    -13.6181839 -0.268010E-08  0.791E-04    5.52      56.5  T
   9    -13.6181839 -0.169943E-08  0.399E-04    5.52     112.1  T
     SCC iter.                  ...        0 min,  0.001 sec
     gradient                   ...        0 min,  0.000 sec
 * total energy  :   -13.5839638 Eh     change       -0.4206148E-05 Eh
   gradient norm :     0.0015285 Eh/α   predicted    -0.1036208E-04 ( 146.36%)
   displ. norm   :     0.0600794 α      lambda       -0.5939186E-05
   maximum displ.:     0.0465255 α      in ANC's #1, #2, #9, ...

........................................................................
.............................. CYCLE   37 ..............................
........................................................................

 iter      E             dE          RMSdq      gap      omega  full diag
   1    -13.6180115 -0.136180E+02  0.943E-02    5.50       0.0  T
   2    -13.6180121 -0.552121E-06  0.606E-02    5.50       1.0  T
   3    -13.6180077  0.438804E-05  0.334E-02    5.50       1.3  T
   4    -13.6180132 -0.548674E-05  0.532E-03    5.50       8.4  T
   5    -13.6180132 -0.307723E-07  0.373E-03    5.50      12.0  T
   6    -13.6180132 -0.309853E-07  0.158E-03    5.50      28.4  T
   7    -13.6180133 -0.406902E-08  0.691E-04    5.50      64.7  T
   8    -13.6180133 -0.926834E-09  0.488E-04    5.50      91.6  T
     SCC iter.                  ...        0 min,  0.001 sec
     gradient                   ...        0 min,  0.000 sec
 * total energy  :   -13.5839690 Eh     change       -0.5247748E-05 Eh
   gradient norm :     0.0009423 Eh/α   predicted    -0.2975766E-05 ( -43.29%)
   displ. norm   :     0.0638580 α      lambda       -0.3531172E-05
   maximum displ.:     0.0519259 α      in ANC's #1, #6, #9, ...

........................................................................
.............................. CYCLE   38 ..............................
........................................................................

 iter      E             dE          RMSdq      gap      omega  full diag
   1    -13.6178482 -0.136178E+02  0.983E-02    5.50       0.0  T
   2    -13.6178484 -0.211685E-06  0.605E-02    5.50       1.0  T
   3    -13.6178473  0.104816E-05  0.161E-02    5.50       2.8  T
   4    -13.6178487 -0.133582E-05  0.477E-03    5.50       9.4  T
   5    -13.6178487 -0.378891E-07  0.170E-03    5.50      26.3  T
   6    -13.6178487 -0.253400E-08  0.743E-04    5.50      60.2  T
   7    -13.6178487 -0.373156E-09  0.172E-04    5.50     259.6  T
     SCC iter.                  ...        0 min,  0.001 sec
     gradient                   ...        0 min,  0.000 sec
 * total energy  :   -13.5839709 Eh     change       -0.1899872E-05 Eh
   gradient norm :     0.0023778 Eh/α   predicted    -0.1767331E-05 (  -6.98%)
   displ. norm   :     0.0111640 α      lambda       -0.4457671E-05
   maximum displ.:     0.0077011 α      in ANC's #1, #6, #3, ...

........................................................................
.............................. CYCLE   39 ..............................
........................................................................

 iter      E             dE          RMSdq      gap      omega  full diag
   1    -13.6180226 -0.136180E+02  0.166E-02    5.51       0.0  T
   2    -13.6180227 -0.586063E-07  0.102E-02    5.51       4.4  T
   3    -13.6180227  0.231132E-08  0.741E-03    5.50       6.0  T
   4    -13.6180228 -0.126394E-06  0.104E-03    5.50      43.0  T
   5    -13.6180228 -0.994357E-09  0.838E-04    5.50      53.4  T
   6    -13.6180228 -0.158241E-08  0.378E-04    5.50     118.3  T
     SCC iter.                  ...        0 min,  0.001 sec
     gradient                   ...        0 min,  0.000 sec
 * total energy  :   -13.5839743 Eh     change       -0.3371258E-05 Eh
   gradient norm :     0.0011604 Eh/α   predicted    -0.2229090E-05 ( -33.88%)
   displ. norm   :     0.0525512 α      lambda       -0.3785785E-05
   maximum displ.:     0.0408361 α      in ANC's #1, #6, #8, ...

........................................................................
.............................. CYCLE   40 ..............................
........................................................................

 iter      E             dE          RMSdq      gap      omega  full diag
   1    -13.6181696 -0.136182E+02  0.746E-02    5.51       0.0  T
   2    -13.6181699 -0.273456E-06  0.453E-02    5.51       1.0  T
   3    -13.6181677  0.219402E-05  0.250E-02    5.51       1.8  T
   4    -13.6181704 -0.270721E-05  0.362E-03    5.51      12.3  T
   5    -13.6181704 -0.141338E-07  0.243E-03    5.51      18.4  T
   6    -13.6181704 -0.124400E-07  0.112E-03    5.51      40.0  T
   7    -13.6181704 -0.203557E-08  0.433E-04    5.51     103.3  T
   8    -13.6181704 -0.343963E-09  0.314E-04    5.51     142.6  T
     SCC iter.                  ...        0 min,  0.001 sec
     gradient                   ...        0 min,  0.000 sec
 * total energy  :   -13.5839773 Eh     change       -0.2989989E-05 Eh
   gradient norm :     0.0008317 Eh/α   predicted    -0.1894876E-05 ( -36.63%)
   displ. norm   :     0.0528102 α      lambda       -0.1967260E-05
   maximum displ.:     0.0411204 α      in ANC's #1, #6, #8, ...

   *** GEOMETRY OPTIMIZATION CONVERGED AFTER 40 ITERATIONS ***

------------------------------------------------------------------------
 total energy gain   :        -0.0518771 Eh      -32.5533 kcal/mol
 total RMSD          :         1.7293044 a0        0.9151 Å
 total power (kW/mol):        -3.4050801 (step)-1867.8726 (real)
------------------------------------------------------------------------

 ANCopt (total)                0 d,  0 h,  0 min,  0.073 sec
 optimizer setup                ...        0 min,  0.000 sec (  0.123%)
 model hessian                  ...        0 min,  0.000 sec (  0.309%)
 ANC generation                 ...        0 min,  0.000 sec (  0.171%)
 coordinate transformation      ...        0 min,  0.000 sec (  0.437%)
 single point calculation       ...        0 min,  0.068 sec ( 93.267%)
 optimization log               ...        0 min,  0.001 sec (  1.480%)
 hessian update                 ...        0 min,  0.000 sec (  0.557%)
 rational function              ...        0 min,  0.001 sec (  1.478%)

================
 final structure:
================
5
 xtb: 6.6.1 (8d0f1dd)
O           -0.02598601571334        5.58907057082225        1.14873294627739
Cl          -1.36530389398016        4.92519771227061        0.68496700314152
H            1.97518231148182        5.94490749280359        3.44276546156161
O            1.22103792388366        5.35837215347429        3.53960325183666
H            0.72402865837242        5.39689237556702        2.69779036320253
 
 Bond Distances (Angstroems)
 ---------------------------
O1-Cl2=1.5651        Cl2-O1=1.5651        H3-O4=0.9603         O4-H3=0.9603         O4-H5=0.9783         H5-O4=0.9783         
 O  H  Rav=0.9693 sigma=0.0090  Rmin=0.9603  Rmax=0.9783     2
 Cl O  Rav=1.5651 sigma=0.0000  Rmin=1.5651  Rmax=1.5651     1
 
 selected bond angles (degree)
 --------------------
H5-O4-H3=106.75                
 
 selected dihedral angles (degree)
 ---------------------------------

 
 CMA Distance (Angstroems)
 ---------------------------
R(CMA):  3.4502
           -------------------------------------------------
          |                Final Singlepoint                |
           -------------------------------------------------

          ...................................................
          :                      SETUP                      :
          :.................................................:
          :  # basis functions                  20          :
          :  # atomic orbitals                  19          :
          :  # shells                            9          :
          :  # electrons                        21          :
          :  max. iterations                   800          :
          :  Hamiltonian                  GFN2-xTB          :
          :  restarted?                      false          :
          :  GBSA solvation                  false          :
          :  PC potential                    false          :
          :  electronic temp.         6000.0000000     K    :
          :  accuracy                    1.0000000          :
          :  -> integral cutoff          0.2500000E+02      :
          :  -> integral neglect         0.1000000E-07      :
          :  -> SCF convergence          0.1000000E-05 Eh   :
          :  -> wf. convergence          0.1000000E-03 e    :
          :  Broyden damping             0.4000000          :
          ...................................................

 iter      E             dE          RMSdq      gap      omega  full diag
   1    -13.6181704 -0.136182E+02  0.135E-04    5.51       0.0  T
   2    -13.6181704 -0.128857E-10  0.108E-04    5.51     413.1  T
   3    -13.6181704 -0.184635E-10  0.768E-05    5.51     582.0  T

   *** convergence criteria satisfied after 3 iterations ***

         #    Occupation            Energy/Eh            Energy/eV
      -------------------------------------------------------------
         1        2.0000           -1.0961045             -29.8265
       ...           ...                  ...                  ...
         5        1.9994           -0.5678808             -15.4528
         6        1.9982           -0.5455274             -14.8446
         7        1.9981           -0.5445674             -14.8184
         8        1.9924           -0.5180888             -14.0979
         9        1.8615           -0.4603553             -12.5269
        10        1.5719           -0.4312664             -11.7354
        11        1.5714           -0.4312300             -11.7344 (HOMO)
        12        0.0072           -0.2286967              -6.2232 (LUMO)
        13        0.0000           -0.0417964              -1.1373
        14        0.0000           -0.0417805              -1.1369
        15        0.0000           -0.0190502              -0.5184
        16        0.0000           -0.0176011              -0.4789
       ...           ...                  ...                  ...
        19                          0.2857942               7.7769
      -------------------------------------------------------------
                  HL-Gap            0.2025333 Eh            5.5112 eV
             Fermi-level           -0.3739077 Eh          -10.1745 eV

 SCC (total)                   0 d,  0 h,  0 min,  0.001 sec
 SCC setup                      ...        0 min,  0.000 sec (  4.353%)
 Dispersion                     ...        0 min,  0.000 sec (  1.444%)
 classical contributions        ...        0 min,  0.000 sec (  0.854%)
 integral evaluation            ...        0 min,  0.000 sec ( 18.084%)
 iterations                     ...        0 min,  0.000 sec ( 37.876%)
 molecular gradient             ...        0 min,  0.000 sec ( 26.444%)
 printout                       ...        0 min,  0.000 sec (  7.852%)

         :::::::::::::::::::::::::::::::::::::::::::::::::::::
         ::                     SUMMARY                     ::
         :::::::::::::::::::::::::::::::::::::::::::::::::::::
         :: total energy             -13.583977306249 Eh    ::
         :: gradient norm              0.000917215287 Eh/a0 ::
         :: HOMO-LUMO gap              5.511211970353 eV    ::
         ::.................................................::
         :: SCC energy               -13.618170439657 Eh    ::
         :: -> isotropic ES            0.043554897311 Eh    ::
         :: -> anisotropic ES         -0.003886090219 Eh    ::
         :: -> anisotropic XC         -0.004629954971 Eh    ::
         :: -> dispersion             -0.001322265781 Eh    ::
         :: repulsion energy           0.034193357994 Eh    ::
         :: add. restraining           0.000000000000 Eh    ::
         :: total charge               0.000000000011 e     ::
         :::::::::::::::::::::::::::::::::::::::::::::::::::::

           -------------------------------------------------
          |                Property Printout                |
           -------------------------------------------------

    * Orbital Energies and Occupations

         #    Occupation            Energy/Eh            Energy/eV
      -------------------------------------------------------------
         1        2.0000           -1.0961045             -29.8265
         2        2.0000           -0.6927649             -18.8511
         3        2.0000           -0.6872449             -18.7009
         4        1.9998           -0.5885797             -16.0161
         5        1.9994           -0.5678808             -15.4528
         6        1.9982           -0.5455274             -14.8446
         7        1.9981           -0.5445674             -14.8184
         8        1.9924           -0.5180888             -14.0979
         9        1.8615           -0.4603553             -12.5269
        10        1.5719           -0.4312664             -11.7354
        11        1.5714           -0.4312300             -11.7344 (HOMO)
        12        0.0072           -0.2286967              -6.2232 (LUMO)
        13        0.0000           -0.0417964              -1.1373
        14        0.0000           -0.0417805              -1.1369
        15        0.0000           -0.0190502              -0.5184
        16        0.0000           -0.0176011              -0.4789
        17                          0.0930811               2.5329
        18                          0.2100893               5.7168
        19                          0.2857942               7.7769
      -------------------------------------------------------------
                  HL-Gap            0.2025333 Eh            5.5112 eV
             Fermi-level           -0.3739077 Eh          -10.1745 eV

     #   Z          covCN         q      C6AA      α(0)
     1   8 O        0.939    -0.368    21.012     6.148
     2  17 Cl       0.939     0.243    92.196    14.690
     3   1 H        0.805     0.302     0.716     1.329
     4   8 O        1.608    -0.514    23.213     6.503
     5   1 H        0.803     0.337     0.620     1.237

 Mol. C6AA /au·bohr⁶  :        423.133973
 Mol. C8AA /au·bohr⁸  :      12013.990544
 Mol. α(0) /au        :         29.906357


Wiberg/Mayer (AO) data.
largest (>0.10) Wiberg bond orders for each atom

 ---------------------------------------------------------------------------
     #   Z sym  total        # sym  WBO       # sym  WBO       # sym  WBO
 ---------------------------------------------------------------------------
     1   8 O    1.345 --     2 Cl   1.275
     2  17 Cl   1.286 --     1 O    1.275
     3   1 H    0.908 --     4 O    0.908
     4   8 O    1.764 --     3 H    0.908     5 H    0.830
     5   1 H    0.885 --     4 O    0.830
 ---------------------------------------------------------------------------

Topologies differ in total number of bonds
Writing topology from bond orders to xtbtopo.mol

molecular dipole:
                 x           y           z       tot (Debye)
 q only:       -0.208      -0.001      -0.240
   full:       -0.232       0.102      -0.488       1.397
molecular quadrupole (traceless):
                xx          xy          yy          xz          yz          zz
 q only:        4.881      -0.451      -0.011       1.460      -1.107      -4.871
  q+dip:        5.152      -0.714       3.300       1.100      -3.791      -8.452
   full:        5.634      -0.216       3.086       1.430      -3.676      -8.720

           -------------------------------------------------
          |                Geometry Summary                 |
           -------------------------------------------------

      molecular mass/u    :       69.4676289
   center of mass at/Å    :       -0.3823835       5.1995037       1.5184628
  moments of inertia/u·Å² :        0.9298009E+01   0.1783659E+03   0.1876601E+03
rotational constants/cm⁻¹ :        0.1813037E+01   0.9451151E-01   0.8983066E-01

 * 2 selected distances

     #   Z          #   Z                                           value/Å
     3   1 H        4   8 O                                       0.9602787 (min)
     4   8 O        5   1 H                                       0.9783410 (max)

 * 1 distinct bonds (by element types)

   Z      Z             #   av. dist./Å        max./Å        min./Å
   1 H    8 O           2     0.9693099     0.9783410     0.9602787


optimized geometry written to: xtbopt.xyz


           -------------------------------------------------
          | TOTAL ENERGY              -13.583977306249 Eh   |
          | GRADIENT NORM               0.000917215287 Eh/α |
          | HOMO-LUMO GAP               5.511211970353 eV   |
           -------------------------------------------------

------------------------------------------------------------------------
 * finished run on 2025/04/07 at 09:40:51.706     
------------------------------------------------------------------------
 total:
 * wall-time:     0 d,  0 h,  0 min,  0.161 sec
 *  cpu-time:     0 d,  0 h,  0 min,  0.792 sec
 * ratio c/w:     4.907 speedup
 SCF:
 * wall-time:     0 d,  0 h,  0 min,  0.017 sec
 *  cpu-time:     0 d,  0 h,  0 min,  0.131 sec
 * ratio c/w:     7.590 speedup
 ANC optimizer:
 * wall-time:     0 d,  0 h,  0 min,  0.075 sec
 *  cpu-time:     0 d,  0 h,  0 min,  0.599 sec
 * ratio c/w:     7.996 speedup

