      -----------------------------------------------------------      
     |                   =====================                   |     
     |                           x T B                           |     
     |                   =====================                   |     
     |                         S. Grimme                         |     
     |          Mulliken Center for Theoretical Chemistry        |     
     |                    University of Bonn                     |     
      -----------------------------------------------------------      

   * xtb version 6.6.1 (8d0f1dd) compiled by 'stahn@M-Bot' on 2023-08-01

   xtb is free software: you can redistribute it and/or modify it under
   the terms of the GNU Lesser General Public License as published by
   the Free Software Foundation, either version 3 of the License, or
   (at your option) any later version.
   
   xtb is distributed in the hope that it will be useful,
   but WITHOUT ANY WARRANTY; without even the implied warranty of
   MERCHANTABILITY or FITNESS FOR A PARTICULAR PURPOSE.  See the
   GNU Lesser General Public License for more details.
   
   Cite this work as:
   * C. Bannwarth, E. Caldeweyher, S. Ehlert, A. Hansen, P. Pracht,
     J. Seibert, S. Spicher, S. Grimme, WIREs Comput. Mol. Sci., 2020, 11,
     e01493. DOI: 10.1002/wcms.1493
   
   for GFN2-xTB:
   * C. Bannwarth, S. Ehlert and S. Grimme., J. Chem. Theory Comput., 2019,
     15, 1652-1671. DOI: 10.1021/acs.jctc.8b01176
   for GFN1-xTB:
   * S. Grimme, C. Bannwarth, P. Shushkov, J. Chem. Theory Comput., 2017,
     13, 1989-2009. DOI: 10.1021/acs.jctc.7b00118
   for GFN0-xTB:
   * P. Pracht, E. Caldeweyher, S. Ehlert, S. Grimme, ChemRxiv, 2019, preprint.
     DOI: 10.26434/chemrxiv.8326202.v1
   for GFN-FF:
   * S. Spicher and S. Grimme, Angew. Chem. Int. Ed., 2020, 59, 15665-15673.
     DOI: 10.1002/anie.202004239
   
   for ALPB and GBSA implicit solvation:
   * S. Ehlert, M. Stahn, S. Spicher, S. Grimme, J. Chem. Theory Comput.,
     2021, 17, 4250-4261. DOI: 10.1021/acs.jctc.1c00471
   
   for DFT-D4:
   * E. Caldeweyher, C. Bannwarth and S. Grimme, J. Chem. Phys., 2017,
     147, 034112. DOI: 10.1063/1.4993215
   * E. Caldeweyher, S. Ehlert, A. Hansen, H. Neugebauer, S. Spicher,
     C. Bannwarth and S. Grimme, J. Chem. Phys., 2019, 150, 154122.
     DOI: 10.1063/1.5090222
   * E. Caldeweyher, J.-M. Mewes, S. Ehlert and S. Grimme, Phys. Chem. Chem. Phys.
     2020, 22, 8499-8512. DOI: 10.1039/D0CP00502A
   
   for sTDA-xTB:
   * S. Grimme and C. Bannwarth, J. Chem. Phys., 2016, 145, 054103.
     DOI: 10.1063/1.4959605
   
   in the mass-spec context:
   * V. Asgeirsson, C. Bauer and S. Grimme, Chem. Sci., 2017, 8, 4879.
     DOI: 10.1039/c7sc00601b
   * J. Koopman and S. Grimme, ACS Omega 2019, 4, 12, 15120-15133.
     DOI: 10.1021/acsomega.9b02011
   
   for metadynamics refer to:
   * S. Grimme, J. Chem. Theory Comput., 2019, 155, 2847-2862
     DOI: 10.1021/acs.jctc.9b00143
   
   for SPH calculations refer to:
   * S. Spicher and S. Grimme, J. Chem. Theory Comput., 2021, 17, 1701-1714
     DOI: 10.1021/acs.jctc.0c01306
   
   with help from (in alphabetical order)
   P. Atkinson, C. Bannwarth, F. Bohle, G. Brandenburg, E. Caldeweyher
   M. Checinski, S. Dohm, S. Ehlert, S. Ehrlich, I. Gerasimov, C. Hölzer
   A. Katbashev, J. Koopman, C. Lavigne, S. Lehtola, F. März, M. Müller,
   F. Musil, H. Neugebauer, J. Pisarek, C. Plett, P. Pracht, F. Pultar,
   J. Seibert, P. Shushkov, S. Spicher, M. Stahn, M. Steiner, T. Strunk,
   J. Stückrath, T. Rose, and J. Unsleber
   
 * started run on 2025/04/07 at 09:40:51.719     

           -------------------------------------------------
          |                Calculation Setup                |
           -------------------------------------------------

          program call               : xtb 559.xyz --input 559.inp --opt
          hostname                   : serv11
          coordinate file            : 559.xyz
          omp threads                :                     8

   ID    Z sym.   atoms
    1    8 O      1, 4
    2   17 Cl     2
    3    1 H      3, 5

molecular fragmentation (1/2 indicates fragments):
11222
# atoms in fragment 1/2:     2     3
 fragment masses (1/2) :       51.45       18.02
CMA distance (Bohr)    :   5.926
constraining FC (au)   :  0.0500

           -------------------------------------------------
          |                 G F N 2 - x T B                 |
           -------------------------------------------------

        Reference                      10.1021/acs.jctc.8b01176
      * Hamiltonian:
        H0-scaling (s, p, d)           1.850000    2.230000    2.230000
        zeta-weighting                 0.500000
      * Dispersion:
        s8                             2.700000
        a1                             0.520000
        a2                             5.000000
        s9                             5.000000
      * Repulsion:
        kExp                           1.500000    1.000000
        rExp                           1.000000
      * Coulomb:
        alpha                          2.000000
        third order                    shell-resolved
        anisotropic                    true
        a3                             3.000000
        a5                             4.000000
        cn-shift                       1.200000
        cn-exp                         4.000000
        max-rad                        5.000000

q/qsh data taken from xtbrestart
CAMM data taken from xtbrestart

          ...................................................
          :                      SETUP                      :
          :.................................................:
          :  # basis functions                  20          :
          :  # atomic orbitals                  19          :
          :  # shells                            9          :
          :  # electrons                        21          :
          :  max. iterations                   800          :
          :  Hamiltonian                  GFN2-xTB          :
          :  restarted?                       true          :
          :  GBSA solvation                  false          :
          :  PC potential                    false          :
          :  electronic temp.         6000.0000000     K    :
          :  accuracy                    1.0000000          :
          :  -> integral cutoff          0.2500000E+02      :
          :  -> integral neglect         0.1000000E-07      :
          :  -> SCF convergence          0.1000000E-05 Eh   :
          :  -> wf. convergence          0.1000000E-03 e    :
          :  Broyden damping             0.4000000          :
          ...................................................

 iter      E             dE          RMSdq      gap      omega  full diag
   1    -13.5708889 -0.135709E+02  0.468E+00    5.14       0.0  T
   2    -13.5752545 -0.436554E-02  0.304E+00    5.29       1.0  T
   3    -13.5709490  0.430545E-02  0.153E+00    5.11       1.0  T
   4    -13.5787576 -0.780854E-02  0.339E-01    5.23       1.0  T
   5    -13.5788348 -0.772871E-04  0.253E-01    5.22       1.0  T
   6    -13.5789185 -0.836228E-04  0.106E-01    5.23       1.0  T
   7    -13.5789280 -0.949959E-05  0.616E-02    5.23       1.0  T
   8    -13.5789355 -0.751093E-05  0.155E-02    5.23       2.9  T
   9    -13.5789357 -0.211958E-06  0.299E-03    5.23      15.0  T
  10    -13.5789357  0.151886E-07  0.283E-03    5.23      15.8  T
  11    -13.5789357 -0.351842E-07  0.765E-04    5.23      58.4  T
  12    -13.5789357  0.595328E-08  0.129E-03    5.23      34.7  T
  13    -13.5789357 -0.712306E-08  0.542E-04    5.23      82.5  T

   *** convergence criteria satisfied after 13 iterations ***

         #    Occupation            Energy/Eh            Energy/eV
      -------------------------------------------------------------
         1        2.0000           -1.0997813             -29.9266
       ...           ...                  ...                  ...
         5        1.9993           -0.5689582             -15.4821
         6        1.9983           -0.5529410             -15.0463
         7        1.9969           -0.5414353             -14.7332
         8        1.9964           -0.5386864             -14.6584
         9        1.8977           -0.4733234             -12.8798
        10        1.5615           -0.4369362             -11.8896
        11        1.5415           -0.4354219             -11.8484 (HOMO)
        12        0.0092           -0.2434025              -6.6233 (LUMO)
        13        0.0000           -0.0982662              -2.6740
        14        0.0000           -0.0465299              -1.2661
        15        0.0000           -0.0453338              -1.2336
        16                         -0.0246291              -0.6702
       ...                                ...                  ...
        19                          0.1779087               4.8411
      -------------------------------------------------------------
                  HL-Gap            0.1920194 Eh            5.2251 eV
             Fermi-level           -0.3821881 Eh          -10.3999 eV

 SCC (total)                   0 d,  0 h,  0 min,  0.017 sec
 SCC setup                      ...        0 min,  0.000 sec (  0.926%)
 Dispersion                     ...        0 min,  0.000 sec (  0.596%)
 classical contributions        ...        0 min,  0.000 sec (  0.451%)
 integral evaluation            ...        0 min,  0.013 sec ( 73.629%)
 iterations                     ...        0 min,  0.004 sec ( 20.853%)
 molecular gradient             ...        0 min,  0.000 sec (  2.623%)
 printout                       ...        0 min,  0.000 sec (  0.649%)

         :::::::::::::::::::::::::::::::::::::::::::::::::::::
         ::                     SUMMARY                     ::
         :::::::::::::::::::::::::::::::::::::::::::::::::::::
         :: total energy             -13.556946345307 Eh    ::
         :: gradient norm              0.125236013113 Eh/a0 ::
         :: HOMO-LUMO gap              5.225113091148 eV    ::
         ::.................................................::
         :: SCC energy               -13.578935713859 Eh    ::
         :: -> isotropic ES            0.046726987401 Eh    ::
         :: -> anisotropic ES         -0.000622718377 Eh    ::
         :: -> anisotropic XC         -0.003230567510 Eh    ::
         :: -> dispersion             -0.001427910905 Eh    ::
         :: repulsion energy           0.021989187709 Eh    ::
         :: add. restraining           0.000000000000 Eh    ::
         :: total charge               0.000000000000 e     ::
         :::::::::::::::::::::::::::::::::::::::::::::::::::::

      ----------------------------------------------------------- 
     |                   =====================                   |
     |                        A N C O P T                        |
     |                   =====================                   |
     |               Approximate Normal Coordinate               |
     |                Rational Function Optimizer                |
      ----------------------------------------------------------- 

          ...................................................
          :                      SETUP                      :
          :.................................................:
          :   optimization level            normal          :
          :   max. optcycles                   200          :
          :   ANC micro-cycles                  20          :
          :   degrees of freedom                 9          :
          :.................................................:
          :   RF solver                   davidson          :
          :   write xtbopt.log                true          :
          :   linear?                        false          :
          :   energy convergence         0.5000000E-05 Eh   :
          :   grad. convergence          0.1000000E-02 Eh/α :
          :   maxmium RF displ.          1.0000000          :
          :   Hlow (freq-cutoff)         0.1000000E-01      :
          :   Hmax (freq-cutoff)         5.0000000          :
          :   S6 in model hess.         20.0000000          :
          ...................................................

generating ANC from model Hessian ...
Using Lindh-Hessian (1995)
 Shifting diagonal of input Hessian by   9.969738328951233E-003
 Lowest  eigenvalues of input Hessian
    0.000000    0.000000    0.000000    0.000000    0.000000    0.000000
    0.010000    0.010557    0.010850    0.011581    0.012617    0.158419
    0.804399    1.264319    1.596532
 Highest eigenvalues
    0.011581    0.012617    0.158419    0.804399    1.264319    1.596532
 

........................................................................
.............................. CYCLE    1 ..............................
........................................................................

 iter      E             dE          RMSdq      gap      omega  full diag
   1    -13.5789357 -0.135789E+02  0.551E-05    5.23       0.0  T
   2    -13.5789357 -0.563638E-11  0.381E-05    5.23    1174.0  T
   3    -13.5789357 -0.416733E-11  0.225E-05    5.23    1990.1  T
     SCC iter.                  ...        0 min,  0.002 sec
     gradient                   ...        0 min,  0.000 sec
 * total energy  :   -13.5569463 Eh     change       -0.1494580E-08 Eh
   gradient norm :     0.1252393 Eh/α   predicted     0.0000000E+00 (-100.00%)
   displ. norm   :     0.1897393 α      lambda       -0.1918302E-01
   maximum displ.:     0.1464800 α      in ANC's #7, #4, #6, ...

........................................................................
.............................. CYCLE    2 ..............................
........................................................................

 iter      E             dE          RMSdq      gap      omega  full diag
   1    -13.5991672 -0.135992E+02  0.532E-01    5.33       0.0  T
   2    -13.5994035 -0.236308E-03  0.260E-01    5.33       1.0  T
   3    -13.5994365 -0.330555E-04  0.186E-01    5.32       1.0  T
   4    -13.5994773 -0.408067E-04  0.575E-02    5.33       1.0  T
   5    -13.5994863 -0.897587E-05  0.256E-02    5.32       1.8  T
   6    -13.5994868 -0.451023E-06  0.106E-02    5.32       4.2  T
   7    -13.5994869 -0.114611E-06  0.637E-03    5.32       7.0  T
   8    -13.5994870 -0.880099E-07  0.329E-03    5.32      13.6  T
   9    -13.5994870 -0.457899E-07  0.112E-03    5.32      39.9  T
  10    -13.5994870 -0.380029E-08  0.494E-04    5.32      90.5  T
  11    -13.5994870 -0.879023E-09  0.212E-04    5.32     211.1  T
     SCC iter.                  ...        0 min,  0.001 sec
     gradient                   ...        0 min,  0.000 sec
 * total energy  :   -13.5722580 Eh     change       -0.1531161E-01 Eh
   gradient norm :     0.0695122 Eh/α   predicted    -0.9936808E-02 ( -35.10%)
   displ. norm   :     0.2331512 α      lambda       -0.1244906E-01
   maximum displ.:     0.1721681 α      in ANC's #7, #4, #2, ...

........................................................................
.............................. CYCLE    3 ..............................
........................................................................

 iter      E             dE          RMSdq      gap      omega  full diag
   1    -13.6196304 -0.136196E+02  0.697E-01    5.45       0.0  T
   2    -13.6200614 -0.430988E-03  0.325E-01    5.45       1.0  T
   3    -13.6200991 -0.377561E-04  0.226E-01    5.44       1.0  T
   4    -13.6201481 -0.489893E-04  0.700E-02    5.45       1.0  T
   5    -13.6201600 -0.119025E-04  0.358E-02    5.44       1.3  T
   6    -13.6201611 -0.108757E-05  0.165E-02    5.44       2.7  T
   7    -13.6201612 -0.130234E-06  0.117E-02    5.44       3.8  T
   8    -13.6201616 -0.352160E-06  0.584E-03    5.44       7.7  T
   9    -13.6201617 -0.173182E-06  0.214E-03    5.44      20.9  T
  10    -13.6201618 -0.159465E-07  0.883E-04    5.44      50.6  T
  11    -13.6201618 -0.338044E-08  0.278E-04    5.44     161.0  T
     SCC iter.                  ...        0 min,  0.001 sec
     gradient                   ...        0 min,  0.000 sec
 * total energy  :   -13.5731484 Eh     change       -0.8904278E-03 Eh
   gradient norm :     0.0928595 Eh/α   predicted    -0.6562894E-02 ( 637.05%)
   displ. norm   :     0.2012326 α      lambda       -0.8907054E-02
   maximum displ.:     0.1323685 α      in ANC's #4, #2, #7, ...

........................................................................
.............................. CYCLE    4 ..............................
........................................................................

 iter      E             dE          RMSdq      gap      omega  full diag
   1    -13.6094816 -0.136095E+02  0.429E-01    5.39       0.0  T
   2    -13.6095897 -0.108101E-03  0.224E-01    5.39       1.0  T
   3    -13.6096022 -0.124819E-04  0.159E-01    5.40       1.0  T
   4    -13.6096405 -0.382738E-04  0.429E-02    5.39       1.0  T
   5    -13.6096433 -0.280061E-05  0.272E-02    5.39       1.6  T
   6    -13.6096442 -0.900161E-06  0.122E-02    5.40       3.7  T
   7    -13.6096444 -0.265812E-06  0.457E-03    5.40       9.8  T
   8    -13.6096445 -0.339556E-07  0.292E-03    5.40      15.3  T
   9    -13.6096445 -0.204841E-07  0.137E-03    5.40      32.7  T
  10    -13.6096445 -0.695584E-08  0.384E-04    5.40     116.4  T
  11    -13.6096445 -0.349679E-09  0.143E-04    5.40     312.2  T
     SCC iter.                  ...        0 min,  0.001 sec
     gradient                   ...        0 min,  0.000 sec
 * total energy  :   -13.5761358 Eh     change       -0.2987427E-02 Eh
   gradient norm :     0.0280521 Eh/α   predicted    -0.4633866E-02 (  55.11%)
   displ. norm   :     0.2408134 α      lambda       -0.1355270E-02
   maximum displ.:     0.2056155 α      in ANC's #2, #3, #1, ...

........................................................................
.............................. CYCLE    5 ..............................
........................................................................

 iter      E             dE          RMSdq      gap      omega  full diag
   1    -13.6111083 -0.136111E+02  0.370E-01    5.39       0.0  T
   2    -13.6111320 -0.236979E-04  0.230E-01    5.39       1.0  T
   3    -13.6111011  0.309445E-04  0.119E-01    5.40       1.0  T
   4    -13.6111496 -0.485548E-04  0.273E-02    5.39       1.6  T
   5    -13.6111502 -0.573786E-06  0.207E-02    5.39       2.2  T
   6    -13.6111508 -0.565374E-06  0.701E-03    5.39       6.4  T
   7    -13.6111508 -0.639816E-07  0.187E-03    5.39      23.9  T
   8    -13.6111509 -0.112953E-07  0.782E-04    5.39      57.2  T
   9    -13.6111509 -0.100376E-08  0.482E-04    5.39      92.8  T
     SCC iter.                  ...        0 min,  0.001 sec
     gradient                   ...        0 min,  0.000 sec
 * total energy  :   -13.5768549 Eh     change       -0.7190640E-03 Eh
   gradient norm :     0.0191703 Eh/α   predicted    -0.7169239E-03 (  -0.30%)
   displ. norm   :     0.1685586 α      lambda       -0.6090939E-03
   maximum displ.:     0.1295577 α      in ANC's #4, #3, #5, ...

........................................................................
.............................. CYCLE    6 ..............................
........................................................................

 iter      E             dE          RMSdq      gap      omega  full diag
   1    -13.6134751 -0.136135E+02  0.275E-01    5.38       0.0  T
   2    -13.6134832 -0.808097E-05  0.171E-01    5.37       1.0  T
   3    -13.6134604  0.227456E-04  0.889E-02    5.38       1.0  T
   4    -13.6134914 -0.310010E-04  0.128E-02    5.38       3.5  T
   5    -13.6134916 -0.160097E-06  0.931E-03    5.38       4.8  T
   6    -13.6134918 -0.162859E-06  0.524E-03    5.38       8.5  T
   7    -13.6134918 -0.558615E-07  0.193E-03    5.38      23.1  T
   8    -13.6134918 -0.694155E-08  0.126E-03    5.38      35.6  T
   9    -13.6134918 -0.377187E-08  0.772E-04    5.38      57.9  T
  10    -13.6134918 -0.209318E-08  0.746E-05    5.38     599.5  T
     SCC iter.                  ...        0 min,  0.001 sec
     gradient                   ...        0 min,  0.000 sec
 * total energy  :   -13.5773571 Eh     change       -0.5021808E-03 Eh
   gradient norm :     0.0198725 Eh/α   predicted    -0.3132005E-03 ( -37.63%)
   displ. norm   :     0.5500320 α      lambda       -0.1753570E-02
   maximum displ.:     0.4119760 α      in ANC's #4, #3, #5, ...

........................................................................
.............................. CYCLE    7 ..............................
........................................................................

 iter      E             dE          RMSdq      gap      omega  full diag
   1    -13.6104923 -0.136105E+02  0.851E-01    5.32       0.0  T
   2    -13.6107463 -0.253913E-03  0.501E-01    5.30       1.0  T
   3    -13.6109590 -0.212759E-03  0.365E-01    5.32       1.0  T
   4    -13.6111869 -0.227927E-03  0.395E-02    5.31       1.1  T
   5    -13.6111895 -0.254465E-05  0.282E-02    5.32       1.6  T
   6    -13.6111910 -0.150371E-05  0.150E-02    5.32       3.0  T
   7    -13.6111915 -0.542076E-06  0.885E-03    5.32       5.1  T
   8    -13.6111918 -0.271321E-06  0.307E-03    5.32      14.6  T
   9    -13.6111918 -0.222600E-07  0.137E-03    5.32      32.7  T
  10    -13.6111918 -0.359750E-08  0.466E-04    5.32      95.9  T
  11    -13.6111918 -0.862988E-09  0.124E-04    5.32     359.3  T
     SCC iter.                  ...        0 min,  0.001 sec
     gradient                   ...        0 min,  0.000 sec
 * total energy  :   -13.5784437 Eh     change       -0.1086689E-02 Eh
   gradient norm :     0.0378435 Eh/α   predicted    -0.1142035E-02 (   5.09%)
   displ. norm   :     0.4265519 α      lambda       -0.3053352E-02
   maximum displ.:     0.2471868 α      in ANC's #5, #3, #4, ...

........................................................................
.............................. CYCLE    8 ..............................
........................................................................

 iter      E             dE          RMSdq      gap      omega  full diag
   1    -13.6164393 -0.136164E+02  0.520E-01    5.46       0.0  T
   2    -13.6164566 -0.172595E-04  0.316E-01    5.46       1.0  T
   3    -13.6164111  0.455260E-04  0.114E-01    5.45       1.0  T
   4    -13.6164707 -0.596523E-04  0.310E-02    5.45       1.4  T
   5    -13.6164717 -0.941622E-06  0.232E-02    5.45       1.9  T
   6    -13.6164727 -0.987468E-06  0.139E-02    5.45       3.2  T
   7    -13.6164733 -0.645956E-06  0.507E-03    5.45       8.8  T
   8    -13.6164734 -0.790873E-07  0.323E-03    5.44      13.8  T
   9    -13.6164734 -0.305963E-07  0.141E-03    5.44      31.8  T
  10    -13.6164734 -0.361250E-08  0.539E-04    5.44      83.0  T
  11    -13.6164734 -0.242071E-09  0.296E-04    5.44     151.0  T
     SCC iter.                  ...        0 min,  0.001 sec
     gradient                   ...        0 min,  0.000 sec
 * total energy  :   -13.5793886 Eh     change       -0.9448264E-03 Eh
   gradient norm :     0.0181179 Eh/α   predicted    -0.1804439E-02 (  90.98%)
   displ. norm   :     0.2728454 α      lambda       -0.1524422E-02
   maximum displ.:     0.1862545 α      in ANC's #5, #3, #4, ...

........................................................................
.............................. CYCLE    9 ..............................
........................................................................

 iter      E             dE          RMSdq      gap      omega  full diag
   1    -13.6141523 -0.136142E+02  0.228E-01    5.53       0.0  T
   2    -13.6141803 -0.279897E-04  0.166E-01    5.53       1.0  T
   3    -13.6141999 -0.196707E-04  0.937E-02    5.53       1.0  T
   4    -13.6142114 -0.114954E-04  0.279E-02    5.53       1.6  T
   5    -13.6142123 -0.846446E-06  0.198E-02    5.53       2.3  T
   6    -13.6142131 -0.789660E-06  0.130E-02    5.53       3.4  T
   7    -13.6142137 -0.695292E-06  0.351E-03    5.52      12.7  T
   8    -13.6142138 -0.334858E-07  0.176E-03    5.52      25.3  T
   9    -13.6142138 -0.670342E-08  0.553E-04    5.52      80.9  T
  10    -13.6142138 -0.449859E-09  0.229E-04    5.52     195.4  T
     SCC iter.                  ...        0 min,  0.001 sec
     gradient                   ...        0 min,  0.000 sec
 * total energy  :   -13.5798890 Eh     change       -0.5004619E-03 Eh
   gradient norm :     0.0100786 Eh/α   predicted    -0.8189572E-03 (  63.64%)
   displ. norm   :     0.3978121 α      lambda       -0.2123370E-02
   maximum displ.:     0.2840905 α      in ANC's #5, #4, #3, ...

........................................................................
.............................. CYCLE   10 ..............................
........................................................................

 iter      E             dE          RMSdq      gap      omega  full diag
   1    -13.6004736 -0.136005E+02  0.111E+00    4.88       0.0  T
   2    -13.6012521 -0.778477E-03  0.861E-01    4.88       1.0  T
   3    -13.6036707 -0.241862E-02  0.419E-01    4.90       1.0  T
   4    -13.6036804 -0.961866E-05  0.182E-01    4.90       1.0  T
   5    -13.6037582 -0.778494E-04  0.103E-01    4.91       1.0  T
   6    -13.6037465  0.117090E-04  0.109E-01    4.92       1.0  T
   7    -13.6037894 -0.429249E-04  0.524E-02    4.94       1.0  T
   8    -13.6038018 -0.124059E-04  0.222E-02    4.95       2.0  T
   9    -13.6038040 -0.212014E-05  0.732E-03    4.95       6.1  T
  10    -13.6038027  0.129243E-05  0.162E-02    4.95       2.8  T
  11    -13.6038041 -0.142327E-05  0.288E-04    4.95     155.1  T
  12    -13.6038041 -0.264325E-09  0.944E-05    4.95     473.9  T
  13    -13.6038041 -0.266080E-10  0.124E-05    4.95    3593.9  T
     SCC iter.                  ...        0 min,  0.001 sec
     gradient                   ...        0 min,  0.000 sec
 * total energy  :   -13.5771926 Eh     change        0.2696451E-02 Eh
   gradient norm :     0.0609375 Eh/α   predicted    -0.1229701E-02 (-145.60%)
   displ. norm   :     0.2522129 α      lambda       -0.6832940E-02
   maximum displ.:     0.1306006 α      in ANC's #5, #3, #4, ...

........................................................................
.............................. CYCLE   11 ..............................
........................................................................

 iter      E             dE          RMSdq      gap      omega  full diag
   1    -13.6137146 -0.136137E+02  0.774E-01    5.47       0.0  T
   2    -13.6143470 -0.632437E-03  0.533E-01    5.46       1.0  T
   3    -13.6149530 -0.606005E-03  0.308E-01    5.45       1.0  T
   4    -13.6150222 -0.691776E-04  0.110E-01    5.45       1.0  T
   5    -13.6150498 -0.275917E-04  0.706E-02    5.44       1.0  T
   6    -13.6150551 -0.534606E-05  0.521E-02    5.43       1.0  T
   7    -13.6150657 -0.105244E-04  0.311E-02    5.42       1.4  T
   8    -13.6150698 -0.409083E-05  0.608E-03    5.42       7.4  T
   9    -13.6150699 -0.176324E-06  0.176E-03    5.42      25.5  T
  10    -13.6150700 -0.138704E-07  0.543E-04    5.42      82.4  T
  11    -13.6150700 -0.116146E-08  0.171E-04    5.42     262.0  T
     SCC iter.                  ...        0 min,  0.001 sec
     gradient                   ...        0 min,  0.000 sec
 * total energy  :   -13.5804991 Eh     change       -0.3306483E-02 Eh
   gradient norm :     0.0131051 Eh/α   predicted    -0.3633796E-02 (   9.90%)
   displ. norm   :     0.2648799 α      lambda       -0.9401020E-03
   maximum displ.:     0.1370552 α      in ANC's #5, #1, #2, ...

........................................................................
.............................. CYCLE   12 ..............................
........................................................................

 iter      E             dE          RMSdq      gap      omega  full diag
   1    -13.6103403 -0.136103E+02  0.426E-01    5.58       0.0  T
   2    -13.6103546 -0.142800E-04  0.249E-01    5.57       1.0  T
   3    -13.6103326  0.219186E-04  0.112E-01    5.57       1.0  T
   4    -13.6103693 -0.366501E-04  0.393E-02    5.57       1.1  T
   5    -13.6103720 -0.268734E-05  0.234E-02    5.57       1.9  T
   6    -13.6103736 -0.160772E-05  0.125E-02    5.56       3.6  T
   7    -13.6103741 -0.519420E-06  0.643E-03    5.56       7.0  T
   8    -13.6103742 -0.947444E-07  0.294E-03    5.56      15.2  T
   9    -13.6103742 -0.171317E-07  0.146E-03    5.56      30.6  T
  10    -13.6103742 -0.426305E-08  0.205E-04    5.56     217.7  T
  11    -13.6103742 -0.359748E-10  0.569E-05    5.56     786.4  T
     SCC iter.                  ...        0 min,  0.001 sec
     gradient                   ...        0 min,  0.000 sec
 * total energy  :   -13.5799537 Eh     change        0.5453391E-03 Eh
   gradient norm :     0.0278803 Eh/α   predicted    -0.5030276E-03 (-192.24%)
   displ. norm   :     0.1915074 α      lambda       -0.1980412E-02
   maximum displ.:     0.1536117 α      in ANC's #5, #2, #1, ...

........................................................................
.............................. CYCLE   13 ..............................
........................................................................

 iter      E             dE          RMSdq      gap      omega  full diag
   1    -13.6159634 -0.136160E+02  0.254E-01    5.46       0.0  T
   2    -13.6159711 -0.768615E-05  0.153E-01    5.46       1.0  T
   3    -13.6159694  0.166275E-05  0.617E-02    5.46       1.0  T
   4    -13.6159784 -0.896709E-05  0.301E-02    5.46       1.5  T
   5    -13.6159800 -0.155779E-05  0.174E-02    5.46       2.6  T
   6    -13.6159805 -0.531324E-06  0.128E-02    5.47       3.5  T
   7    -13.6159810 -0.549731E-06  0.521E-03    5.47       8.6  T
   8    -13.6159811 -0.605114E-07  0.258E-03    5.47      17.4  T
   9    -13.6159811 -0.139790E-07  0.162E-03    5.47      27.6  T
  10    -13.6159811 -0.638496E-08  0.170E-04    5.47     263.1  T
  11    -13.6159811 -0.166001E-10  0.155E-05    5.47    2885.8  T
     SCC iter.                  ...        0 min,  0.001 sec
     gradient                   ...        0 min,  0.000 sec
 * total energy  :   -13.5808887 Eh     change       -0.9349554E-03 Eh
   gradient norm :     0.0086462 Eh/α   predicted    -0.1026523E-02 (   9.79%)
   displ. norm   :     0.2137491 α      lambda       -0.6535366E-03
   maximum displ.:     0.1336177 α      in ANC's #4, #1, #5, ...

........................................................................
.............................. CYCLE   14 ..............................
........................................................................

 iter      E             dE          RMSdq      gap      omega  full diag
   1    -13.6144043 -0.136144E+02  0.299E-01    5.40       0.0  T
   2    -13.6144175 -0.131141E-04  0.189E-01    5.39       1.0  T
   3    -13.6143938  0.236378E-04  0.131E-01    5.40       1.0  T
   4    -13.6144445 -0.506426E-04  0.273E-02    5.40       1.6  T
   5    -13.6144456 -0.116011E-05  0.145E-02    5.40       3.1  T
   6    -13.6144460 -0.365405E-06  0.936E-03    5.40       4.8  T
   7    -13.6144462 -0.189950E-06  0.433E-03    5.40      10.3  T
   8    -13.6144462 -0.408988E-07  0.283E-03    5.40      15.8  T
   9    -13.6144462 -0.235886E-07  0.164E-03    5.40      27.3  T
  10    -13.6144462 -0.815684E-08  0.272E-04    5.40     164.5  T
  11    -13.6144463 -0.139741E-09  0.104E-04    5.40     430.8  T
     SCC iter.                  ...        0 min,  0.001 sec
     gradient                   ...        0 min,  0.000 sec
 * total energy  :   -13.5809573 Eh     change       -0.6858602E-04 Eh
   gradient norm :     0.0191030 Eh/α   predicted    -0.3416948E-03 ( 398.20%)
   displ. norm   :     0.0883490 α      lambda       -0.5457704E-03
   maximum displ.:     0.0618126 α      in ANC's #1, #5, #9, ...

........................................................................
.............................. CYCLE   15 ..............................
........................................................................

 iter      E             dE          RMSdq      gap      omega  full diag
   1    -13.6153401 -0.136153E+02  0.158E-01    5.44       0.0  T
   2    -13.6153416 -0.155471E-05  0.100E-01    5.44       1.0  T
   3    -13.6153333  0.830363E-05  0.457E-02    5.44       1.0  T
   4    -13.6153437 -0.103288E-04  0.106E-02    5.44       4.2  T
   5    -13.6153438 -0.109122E-06  0.797E-03    5.44       5.6  T
   6    -13.6153439 -0.132483E-06  0.474E-03    5.44       9.4  T
   7    -13.6153440 -0.782811E-07  0.175E-03    5.44      25.6  T
   8    -13.6153440 -0.748001E-08  0.104E-03    5.44      43.2  T
   9    -13.6153440 -0.251132E-08  0.576E-04    5.44      77.7  T
  10    -13.6153440 -0.718767E-09  0.888E-05    5.44     503.9  T
     SCC iter.                  ...        0 min,  0.001 sec
     gradient                   ...        0 min,  0.000 sec
 * total energy  :   -13.5813442 Eh     change       -0.3869589E-03 Eh
   gradient norm :     0.0072994 Eh/α   predicted    -0.2750153E-03 ( -28.93%)
   displ. norm   :     0.1846203 α      lambda       -0.4394481E-03
   maximum displ.:     0.1338563 α      in ANC's #5, #4, #9, ...

........................................................................
.............................. CYCLE   16 ..............................
........................................................................

 iter      E             dE          RMSdq      gap      omega  full diag
   1    -13.6155105 -0.136155E+02  0.281E-01    5.44       0.0  T
   2    -13.6155143 -0.379292E-05  0.165E-01    5.44       1.0  T
   3    -13.6154871  0.271850E-04  0.955E-02    5.44       1.0  T
   4    -13.6155209 -0.338418E-04  0.132E-02    5.44       3.4  T
   5    -13.6155211 -0.156888E-06  0.896E-03    5.44       5.0  T
   6    -13.6155212 -0.146360E-06  0.395E-03    5.44      11.3  T
   7    -13.6155212 -0.142709E-07  0.136E-03    5.44      32.8  T
   8    -13.6155212 -0.418331E-08  0.330E-04    5.44     135.6  T
   9    -13.6155212 -0.124579E-09  0.111E-04    5.44     401.2  T
     SCC iter.                  ...        0 min,  0.001 sec
     gradient                   ...        0 min,  0.000 sec
 * total energy  :   -13.5816679 Eh     change       -0.3237179E-03 Eh
   gradient norm :     0.0070773 Eh/α   predicted    -0.2272151E-03 ( -29.81%)
   displ. norm   :     0.2600065 α      lambda       -0.3958449E-03
   maximum displ.:     0.1729584 α      in ANC's #5, #4, #9, ...

........................................................................
.............................. CYCLE   17 ..............................
........................................................................

 iter      E             dE          RMSdq      gap      omega  full diag
   1    -13.6150245 -0.136150E+02  0.337E-01    5.45       0.0  T
   2    -13.6150288 -0.432316E-05  0.201E-01    5.44       1.0  T
   3    -13.6150059  0.229228E-04  0.857E-02    5.45       1.0  T
   4    -13.6150347 -0.287657E-04  0.197E-02    5.45       2.3  T
   5    -13.6150350 -0.302186E-06  0.152E-02    5.44       2.9  T
   6    -13.6150354 -0.424986E-06  0.530E-03    5.44       8.4  T
   7    -13.6150354 -0.254561E-07  0.155E-03    5.44      28.9  T
   8    -13.6150354 -0.434877E-08  0.777E-04    5.44      57.6  T
   9    -13.6150354 -0.122681E-08  0.475E-04    5.44      94.2  T
     SCC iter.                  ...        0 min,  0.001 sec
     gradient                   ...        0 min,  0.000 sec
 * total energy  :   -13.5819356 Eh     change       -0.2676677E-03 Eh
   gradient norm :     0.0080995 Eh/α   predicted    -0.2113066E-03 ( -21.06%)
   displ. norm   :     0.1919167 α      lambda       -0.2769772E-03
   maximum displ.:     0.1362366 α      in ANC's #5, #9, #4, ...

........................................................................
.............................. CYCLE   18 ..............................
........................................................................

 iter      E             dE          RMSdq      gap      omega  full diag
   1    -13.6169997 -0.136170E+02  0.242E-01    5.47       0.0  T
   2    -13.6170053 -0.559646E-05  0.152E-01    5.47       1.0  T
   3    -13.6169856  0.196518E-04  0.855E-02    5.47       1.0  T
   4    -13.6170129 -0.273301E-04  0.184E-02    5.47       2.4  T
   5    -13.6170133 -0.318719E-06  0.147E-02    5.47       3.1  T
   6    -13.6170137 -0.434981E-06  0.461E-03    5.47       9.7  T
   7    -13.6170137 -0.270979E-07  0.197E-03    5.47      22.7  T
   8    -13.6170137 -0.101607E-07  0.139E-03    5.47      32.3  T
   9    -13.6170137 -0.580855E-08  0.758E-04    5.47      59.0  T
  10    -13.6170137 -0.184501E-08  0.144E-04    5.47     309.7  T
     SCC iter.                  ...        0 min,  0.001 sec
     gradient                   ...        0 min,  0.000 sec
 * total energy  :   -13.5820966 Eh     change       -0.1610017E-03 Eh
   gradient norm :     0.0047338 Eh/α   predicted    -0.1435918E-03 ( -10.81%)
   displ. norm   :     0.2101915 α      lambda       -0.1477983E-03
   maximum displ.:     0.1218993 α      in ANC's #5, #4, #9, ...

........................................................................
.............................. CYCLE   19 ..............................
........................................................................

 iter      E             dE          RMSdq      gap      omega  full diag
   1    -13.6157339 -0.136157E+02  0.259E-01    5.45       0.0  T
   2    -13.6157373 -0.331100E-05  0.155E-01    5.45       1.0  T
   3    -13.6157125  0.247456E-04  0.892E-02    5.45       1.0  T
   4    -13.6157435 -0.309627E-04  0.156E-02    5.45       2.9  T
   5    -13.6157437 -0.242909E-06  0.977E-03    5.45       4.6  T
   6    -13.6157439 -0.184317E-06  0.384E-03    5.45      11.7  T
   7    -13.6157439 -0.681958E-08  0.121E-03    5.45      36.8  T
   8    -13.6157439 -0.415944E-08  0.340E-04    5.45     131.6  T
   9    -13.6157439 -0.569536E-10  0.495E-05    5.45     903.2  T
     SCC iter.                  ...        0 min,  0.001 sec
     gradient                   ...        0 min,  0.000 sec
 * total energy  :   -13.5821453 Eh     change       -0.4868580E-04 Eh
   gradient norm :     0.0067265 Eh/α   predicted    -0.7716300E-04 (  58.49%)
   displ. norm   :     0.0288657 α      lambda       -0.8479151E-04
   maximum displ.:     0.0209789 α      in ANC's #5, #4, #3, ...

........................................................................
.............................. CYCLE   20 ..............................
........................................................................

 iter      E             dE          RMSdq      gap      omega  full diag
   1    -13.6167809 -0.136168E+02  0.855E-02    5.51       0.0  T
   2    -13.6167879 -0.706920E-05  0.714E-02    5.51       1.0  T
   3    -13.6168020 -0.140581E-04  0.355E-02    5.50       1.3  T
   4    -13.6168026 -0.636465E-06  0.115E-02    5.50       3.9  T
   5    -13.6168028 -0.186455E-06  0.911E-03    5.50       4.9  T
   6    -13.6168031 -0.268616E-06  0.432E-03    5.50      10.4  T
   7    -13.6168031 -0.606689E-07  0.223E-03    5.50      20.1  T
   8    -13.6168032 -0.197618E-07  0.590E-04    5.50      75.8  T
   9    -13.6168032 -0.370170E-09  0.231E-04    5.50     193.4  T
     SCC iter.                  ...        0 min,  0.001 sec
     gradient                   ...        0 min,  0.000 sec
 * total energy  :   -13.5821767 Eh     change       -0.3144140E-04 Eh
   gradient norm :     0.0045735 Eh/α   predicted    -0.4243020E-04 (  34.95%)
   displ. norm   :     0.0758050 α      lambda       -0.8838458E-04
   maximum displ.:     0.0462696 α      in ANC's #5, #9, #4, ...
 * RMSD in coord.:     0.9584409 α      energy gain  -0.2523039E-01 Eh

generating ANC from model Hessian ...
Using Lindh-Hessian (1995)
 Shifting diagonal of input Hessian by   9.899809188121561E-003
 Lowest  eigenvalues of input Hessian
    0.000000    0.000000    0.000000    0.000000    0.000000    0.000000
    0.010000    0.010355    0.014657    0.021300    0.050762    0.311431
    1.202333    1.432109    1.750174
 Highest eigenvalues
    0.021300    0.050762    0.311431    1.202333    1.432109    1.750174
 

........................................................................
.............................. CYCLE   21 ..............................
........................................................................

 iter      E             dE          RMSdq      gap      omega  full diag
   1    -13.6176906 -0.136177E+02  0.128E-01    5.46       0.0  T
   2    -13.6176951 -0.448385E-05  0.913E-02    5.46       1.0  T
   3    -13.6177003 -0.525030E-05  0.556E-02    5.46       1.0  T
   4    -13.6177052 -0.483874E-05  0.117E-02    5.46       3.8  T
   5    -13.6177055 -0.266913E-06  0.620E-03    5.46       7.2  T
   6    -13.6177055 -0.830430E-07  0.403E-03    5.46      11.1  T
   7    -13.6177056 -0.468529E-07  0.179E-03    5.46      25.0  T
   8    -13.6177056 -0.637136E-08  0.130E-03    5.46      34.5  T
   9    -13.6177056 -0.454393E-08  0.707E-04    5.46      63.2  T
  10    -13.6177056 -0.120398E-08  0.339E-05    5.46    1320.6  T
     SCC iter.                  ...        0 min,  0.001 sec
     gradient                   ...        0 min,  0.000 sec
 * total energy  :   -13.5821932 Eh     change       -0.1643926E-04 Eh
   gradient norm :     0.0075162 Eh/α   predicted     0.0000000E+00 (-100.00%)
   displ. norm   :     0.1933115 α      lambda       -0.4935099E-03
   maximum displ.:     0.1611963 α      in ANC's #1, #3, #2, ...

........................................................................
.............................. CYCLE   22 ..............................
........................................................................

 iter      E             dE          RMSdq      gap      omega  full diag
   1    -13.6149158 -0.136149E+02  0.247E-01    5.46       0.0  T
   2    -13.6149240 -0.816605E-05  0.151E-01    5.46       1.0  T
   3    -13.6149048  0.191725E-04  0.932E-02    5.47       1.0  T
   4    -13.6149329 -0.280668E-04  0.172E-02    5.46       2.6  T
   5    -13.6149333 -0.365615E-06  0.121E-02    5.46       3.7  T
   6    -13.6149334 -0.167698E-06  0.511E-03    5.46       8.8  T
   7    -13.6149335 -0.380577E-07  0.180E-03    5.46      24.9  T
   8    -13.6149335 -0.618581E-08  0.669E-04    5.46      66.8  T
   9    -13.6149335 -0.786144E-09  0.393E-04    5.46     113.7  T
     SCC iter.                  ...        0 min,  0.001 sec
     gradient                   ...        0 min,  0.000 sec
 * total energy  :   -13.5822987 Eh     change       -0.1054984E-03 Eh
   gradient norm :     0.0104720 Eh/α   predicted    -0.2559771E-03 ( 142.64%)
   displ. norm   :     0.1007772 α      lambda       -0.3168869E-03
   maximum displ.:     0.0752117 α      in ANC's #2, #1, #3, ...

........................................................................
.............................. CYCLE   23 ..............................
........................................................................

 iter      E             dE          RMSdq      gap      omega  full diag
   1    -13.6167972 -0.136168E+02  0.129E-01    5.47       0.0  T
   2    -13.6167988 -0.157671E-05  0.777E-02    5.47       1.0  T
   3    -13.6167935  0.532681E-05  0.452E-02    5.47       1.0  T
   4    -13.6168008 -0.734200E-05  0.890E-03    5.47       5.0  T
   5    -13.6168009 -0.532769E-07  0.547E-03    5.47       8.2  T
   6    -13.6168009 -0.430787E-07  0.321E-03    5.47      13.9  T
   7    -13.6168009 -0.164762E-07  0.993E-04    5.47      45.1  T
   8    -13.6168009 -0.116779E-08  0.513E-04    5.47      87.2  T
     SCC iter.                  ...        0 min,  0.001 sec
     gradient                   ...        0 min,  0.000 sec
 * total energy  :   -13.5824209 Eh     change       -0.1221912E-03 Eh
   gradient norm :     0.0026433 Eh/α   predicted    -0.1600547E-03 (  30.99%)
   displ. norm   :     0.0757478 α      lambda       -0.6451465E-04
   maximum displ.:     0.0520325 α      in ANC's #1, #2, #4, ...

........................................................................
.............................. CYCLE   24 ..............................
........................................................................

 iter      E             dE          RMSdq      gap      omega  full diag
   1    -13.6164053 -0.136164E+02  0.118E-01    5.47       0.0  T
   2    -13.6164060 -0.695208E-06  0.735E-02    5.46       1.0  T
   3    -13.6164022  0.374075E-05  0.321E-02    5.47       1.4  T
   4    -13.6164069 -0.467327E-05  0.716E-03    5.47       6.2  T
   5    -13.6164069 -0.394008E-07  0.539E-03    5.47       8.3  T
   6    -13.6164070 -0.526028E-07  0.196E-03    5.47      22.8  T
   7    -13.6164070 -0.306989E-08  0.437E-04    5.47     102.3  T
   8    -13.6164070 -0.289351E-09  0.192E-04    5.47     232.9  T
     SCC iter.                  ...        0 min,  0.001 sec
     gradient                   ...        0 min,  0.000 sec
 * total energy  :   -13.5824776 Eh     change       -0.5676462E-04 Eh
   gradient norm :     0.0047996 Eh/α   predicted    -0.3244208E-04 ( -42.85%)
   displ. norm   :     0.2881686 α      lambda       -0.2111629E-03
   maximum displ.:     0.2047641 α      in ANC's #2, #1, #4, ...

........................................................................
.............................. CYCLE   25 ..............................
........................................................................

 iter      E             dE          RMSdq      gap      omega  full diag
   1    -13.6136195 -0.136136E+02  0.462E-01    5.40       0.0  T
   2    -13.6136403 -0.207312E-04  0.295E-01    5.40       1.0  T
   3    -13.6135521  0.881063E-04  0.193E-01    5.41       1.0  T
   4    -13.6136865 -0.134388E-03  0.306E-02    5.41       1.5  T
   5    -13.6136879 -0.140421E-05  0.144E-02    5.41       3.1  T
   6    -13.6136885 -0.515561E-06  0.850E-03    5.41       5.3  T
   7    -13.6136885 -0.938048E-07  0.544E-03    5.41       8.2  T
   8    -13.6136886 -0.946550E-07  0.252E-03    5.41      17.7  T
   9    -13.6136887 -0.232293E-07  0.855E-04    5.41      52.3  T
  10    -13.6136887 -0.840862E-09  0.524E-04    5.41      85.3  T
     SCC iter.                  ...        0 min,  0.001 sec
     gradient                   ...        0 min,  0.000 sec
 * total energy  :   -13.5823784 Eh     change        0.9924228E-04 Eh
   gradient norm :     0.0231795 Eh/α   predicted    -0.1143466E-03 (-215.22%)
   displ. norm   :     0.1742641 α      lambda       -0.5687242E-03
   maximum displ.:     0.1242323 α      in ANC's #1, #2, #4, ...

........................................................................
.............................. CYCLE   26 ..............................
........................................................................

 iter      E             dE          RMSdq      gap      omega  full diag
   1    -13.6164126 -0.136164E+02  0.299E-01    5.47       0.0  T
   2    -13.6164281 -0.154975E-04  0.199E-01    5.47       1.0  T
   3    -13.6164206  0.754650E-05  0.127E-01    5.47       1.0  T
   4    -13.6164613 -0.407655E-04  0.199E-02    5.47       2.3  T
   5    -13.6164618 -0.502295E-06  0.130E-02    5.47       3.4  T
   6    -13.6164622 -0.372949E-06  0.754E-03    5.47       5.9  T
   7    -13.6164623 -0.124563E-06  0.316E-03    5.47      14.2  T
   8    -13.6164624 -0.304373E-07  0.207E-03    5.47      21.6  T
   9    -13.6164624 -0.115119E-07  0.111E-03    5.46      40.4  T
  10    -13.6164624 -0.334044E-08  0.144E-04    5.46     310.3  T
  11    -13.6164624 -0.424212E-10  0.505E-05    5.46     885.1  T
     SCC iter.                  ...        0 min,  0.001 sec
     gradient                   ...        0 min,  0.000 sec
 * total energy  :   -13.5825741 Eh     change       -0.1957441E-03 Eh
   gradient norm :     0.0044345 Eh/α   predicted    -0.2929981E-03 (  49.68%)
   displ. norm   :     0.0557465 α      lambda       -0.4657587E-04
   maximum displ.:     0.0441184 α      in ANC's #2, #1, #4, ...

........................................................................
.............................. CYCLE   27 ..............................
........................................................................

 iter      E             dE          RMSdq      gap      omega  full diag
   1    -13.6165343 -0.136165E+02  0.834E-02    5.46       0.0  T
   2    -13.6165345 -0.253363E-06  0.513E-02    5.46       1.0  T
   3    -13.6165346 -0.983821E-07  0.818E-03    5.46       5.5  T
   4    -13.6165347 -0.141953E-06  0.514E-03    5.46       8.7  T
   5    -13.6165348 -0.135819E-07  0.351E-03    5.46      12.8  T
   6    -13.6165348 -0.339849E-07  0.127E-03    5.46      35.1  T
   7    -13.6165348 -0.109256E-08  0.201E-04    5.46     222.1  T
   8    -13.6165348 -0.173426E-10  0.755E-05    5.46     592.6  T
     SCC iter.                  ...        0 min,  0.001 sec
     gradient                   ...        0 min,  0.000 sec
 * total energy  :   -13.5826183 Eh     change       -0.4419715E-04 Eh
   gradient norm :     0.0044561 Eh/α   predicted    -0.2336170E-04 ( -47.14%)
   displ. norm   :     0.4193584 α      lambda       -0.3406247E-03
   maximum displ.:     0.3335864 α      in ANC's #2, #1, #3, ...

........................................................................
.............................. CYCLE   28 ..............................
........................................................................

 iter      E             dE          RMSdq      gap      omega  full diag
   1    -13.6134029 -0.136134E+02  0.649E-01    5.37       0.0  T
   2    -13.6134348 -0.319059E-04  0.411E-01    5.37       1.0  T
   3    -13.6132244  0.210321E-03  0.259E-01    5.37       1.0  T
   4    -13.6135037 -0.279303E-03  0.429E-02    5.38       1.0  T
   5    -13.6135060 -0.230653E-05  0.258E-02    5.38       1.7  T
   6    -13.6135076 -0.154246E-05  0.122E-02    5.38       3.7  T
   7    -13.6135076 -0.277997E-07  0.939E-03    5.38       4.8  T
   8    -13.6135080 -0.341605E-06  0.348E-03    5.38      12.8  T
   9    -13.6135080 -0.386244E-07  0.147E-03    5.38      30.5  T
  10    -13.6135080 -0.826002E-08  0.732E-04    5.38      61.1  T
  11    -13.6135080 -0.199391E-08  0.425E-05    5.38    1053.4  T
     SCC iter.                  ...        0 min,  0.001 sec
     gradient                   ...        0 min,  0.000 sec
 * total energy  :   -13.5824409 Eh     change        0.1774700E-03 Eh
   gradient norm :     0.0273019 Eh/α   predicted    -0.2002659E-03 (-212.84%)
   displ. norm   :     0.2553454 α      lambda       -0.1098140E-02
   maximum displ.:     0.1988261 α      in ANC's #2, #1, #4, ...

........................................................................
.............................. CYCLE   29 ..............................
........................................................................

 iter      E             dE          RMSdq      gap      omega  full diag
   1    -13.6170617 -0.136171E+02  0.432E-01    5.49       0.0  T
   2    -13.6170973 -0.355852E-04  0.293E-01    5.49       1.0  T
   3    -13.6170889  0.836634E-05  0.181E-01    5.49       1.0  T
   4    -13.6171697 -0.807755E-04  0.310E-02    5.49       1.4  T
   5    -13.6171707 -0.103719E-05  0.229E-02    5.48       2.0  T
   6    -13.6171720 -0.127934E-05  0.112E-02    5.48       4.0  T
   7    -13.6171723 -0.272397E-06  0.515E-03    5.48       8.7  T
   8    -13.6171724 -0.915995E-07  0.316E-03    5.48      14.2  T
   9    -13.6171724 -0.314235E-07  0.961E-04    5.48      46.5  T
  10    -13.6171724 -0.151611E-08  0.245E-04    5.48     182.7  T
     SCC iter.                  ...        0 min,  0.001 sec
     gradient                   ...        0 min,  0.000 sec
 * total energy  :   -13.5827608 Eh     change       -0.3199610E-03 Eh
   gradient norm :     0.0021247 Eh/α   predicted    -0.5848692E-03 (  82.79%)
   displ. norm   :     0.0673512 α      lambda       -0.5968597E-04
   maximum displ.:     0.0526837 α      in ANC's #2, #1, #3, ...

........................................................................
.............................. CYCLE   30 ..............................
........................................................................

 iter      E             dE          RMSdq      gap      omega  full diag
   1    -13.6170921 -0.136171E+02  0.101E-01    5.48       0.0  T
   2    -13.6170924 -0.343877E-06  0.621E-02    5.48       1.0  T
   3    -13.6170922  0.215988E-06  0.122E-02    5.48       3.7  T
   4    -13.6170928 -0.551757E-06  0.582E-03    5.48       7.7  T
   5    -13.6170928 -0.272387E-07  0.425E-03    5.48      10.5  T
   6    -13.6170928 -0.344729E-07  0.163E-03    5.48      27.4  T
   7    -13.6170928 -0.242028E-08  0.314E-04    5.48     142.6  T
   8    -13.6170928 -0.742642E-10  0.176E-04    5.48     253.9  T
     SCC iter.                  ...        0 min,  0.001 sec
     gradient                   ...        0 min,  0.000 sec
 * total energy  :   -13.5828183 Eh     change       -0.5743862E-04 Eh
   gradient norm :     0.0024016 Eh/α   predicted    -0.2997974E-04 ( -47.81%)
   displ. norm   :     0.6130839 α      lambda       -0.5002268E-03
   maximum displ.:     0.4922546 α      in ANC's #2, #1, #3, ...

........................................................................
.............................. CYCLE   31 ..............................
........................................................................

 iter      E             dE          RMSdq      gap      omega  full diag
   1    -13.6080566 -0.136081E+02  0.998E-01    5.28       0.0  T
   2    -13.6081862 -0.129626E-03  0.636E-01    5.28       1.0  T
   3    -13.6078989  0.287305E-03  0.445E-01    5.29       1.0  T
   4    -13.6085172 -0.618230E-03  0.712E-02    5.29       1.0  T
   5    -13.6085236 -0.647667E-05  0.551E-02    5.29       1.0  T
   6    -13.6085287 -0.508514E-05  0.260E-02    5.30       1.7  T
   7    -13.6085303 -0.155295E-05  0.177E-02    5.30       2.5  T
   8    -13.6085315 -0.122167E-05  0.651E-03    5.30       6.9  T
   9    -13.6085316 -0.140773E-06  0.249E-03    5.30      17.9  T
  10    -13.6085316 -0.109215E-07  0.156E-03    5.30      28.6  T
  11    -13.6085317 -0.101959E-07  0.250E-04    5.30     178.7  T
  12    -13.6085317 -0.345256E-09  0.981E-06    5.30    4558.6  T
     SCC iter.                  ...        0 min,  0.001 sec
     gradient                   ...        0 min,  0.000 sec
 * total energy  :   -13.5809841 Eh     change        0.1834199E-02 Eh
   gradient norm :     0.0548819 Eh/α   predicted    -0.3441202E-03 (-118.76%)
   displ. norm   :     0.4042282 α      lambda       -0.5616782E-02
   maximum displ.:     0.3020508 α      in ANC's #2, #1, #3, ...

........................................................................
.............................. CYCLE   32 ..............................
........................................................................

 iter      E             dE          RMSdq      gap      omega  full diag
   1    -13.6172100 -0.136172E+02  0.719E-01    5.50       0.0  T
   2    -13.6173303 -0.120212E-03  0.484E-01    5.50       1.0  T
   3    -13.6173583 -0.280896E-04  0.301E-01    5.49       1.0  T
   4    -13.6175601 -0.201723E-03  0.493E-02    5.49       1.0  T
   5    -13.6175622 -0.216671E-05  0.396E-02    5.49       1.1  T
   6    -13.6175659 -0.369623E-05  0.198E-02    5.48       2.3  T
   7    -13.6175669 -0.983748E-06  0.902E-03    5.48       5.0  T
   8    -13.6175672 -0.299727E-06  0.493E-03    5.48       9.1  T
   9    -13.6175673 -0.584325E-07  0.269E-03    5.48      16.6  T
  10    -13.6175673 -0.160854E-07  0.534E-04    5.48      83.7  T
  11    -13.6175673 -0.961865E-09  0.143E-04    5.48     313.7  T
     SCC iter.                  ...        0 min,  0.001 sec
     gradient                   ...        0 min,  0.000 sec
 * total energy  :   -13.5829630 Eh     change       -0.1978915E-02 Eh
   gradient norm :     0.0033577 Eh/α   predicted    -0.3267287E-02 (  65.10%)
   displ. norm   :     0.0392700 α      lambda       -0.6694061E-04
   maximum displ.:     0.0309342 α      in ANC's #1, #4, #5, ...

........................................................................
.............................. CYCLE   33 ..............................
........................................................................

 iter      E             dE          RMSdq      gap      omega  full diag
   1    -13.6171902 -0.136172E+02  0.596E-02    5.50       0.0  T
   2    -13.6171913 -0.112175E-05  0.426E-02    5.50       1.0  T
   3    -13.6171914 -0.453328E-07  0.249E-02    5.50       1.8  T
   4    -13.6171927 -0.139246E-05  0.677E-03    5.50       6.6  T
   5    -13.6171928 -0.550894E-07  0.507E-03    5.50       8.8  T
   6    -13.6171929 -0.528413E-07  0.305E-03    5.50      14.6  T
   7    -13.6171929 -0.382752E-07  0.986E-04    5.50      45.3  T
   8    -13.6171929 -0.209543E-08  0.342E-04    5.50     130.7  T
     SCC iter.                  ...        0 min,  0.001 sec
     gradient                   ...        0 min,  0.000 sec
 * total energy  :   -13.5829999 Eh     change       -0.3694131E-04 Eh
   gradient norm :     0.0033631 Eh/α   predicted    -0.3352198E-04 (  -9.26%)
   displ. norm   :     0.0545375 α      lambda       -0.4945973E-04
   maximum displ.:     0.0368489 α      in ANC's #2, #1, #5, ...

........................................................................
.............................. CYCLE   34 ..............................
........................................................................

 iter      E             dE          RMSdq      gap      omega  full diag
   1    -13.6171168 -0.136171E+02  0.881E-02    5.50       0.0  T
   2    -13.6171171 -0.305193E-06  0.548E-02    5.50       1.0  T
   3    -13.6171155  0.159699E-05  0.202E-02    5.50       2.2  T
   4    -13.6171175 -0.199733E-05  0.514E-03    5.50       8.7  T
   5    -13.6171175 -0.218031E-07  0.370E-03    5.50      12.1  T
   6    -13.6171175 -0.257343E-07  0.130E-03    5.50      34.4  T
   7    -13.6171175 -0.115267E-08  0.268E-04    5.50     167.0  T
   8    -13.6171175 -0.783622E-10  0.134E-04    5.50     333.4  T
     SCC iter.                  ...        0 min,  0.001 sec
     gradient                   ...        0 min,  0.000 sec
 * total energy  :   -13.5830464 Eh     change       -0.4644328E-04 Eh
   gradient norm :     0.0042061 Eh/α   predicted    -0.2480262E-04 ( -46.60%)
   displ. norm   :     0.4196291 α      lambda       -0.3561593E-03
   maximum displ.:     0.3134535 α      in ANC's #2, #1, #5, ...

........................................................................
.............................. CYCLE   35 ..............................
........................................................................

 iter      E             dE          RMSdq      gap      omega  full diag
   1    -13.6130168 -0.136130E+02  0.716E-01    5.36       0.0  T
   2    -13.6130786 -0.618252E-04  0.463E-01    5.37       1.0  T
   3    -13.6129098  0.168793E-03  0.313E-01    5.37       1.0  T
   4    -13.6132347 -0.324866E-03  0.497E-02    5.37       1.0  T
   5    -13.6132374 -0.269333E-05  0.376E-02    5.37       1.2  T
   6    -13.6132403 -0.293010E-05  0.154E-02    5.38       2.9  T
   7    -13.6132406 -0.271742E-06  0.118E-02    5.38       3.8  T
   8    -13.6132411 -0.554783E-06  0.497E-03    5.38       9.0  T
   9    -13.6132412 -0.602313E-07  0.263E-03    5.38      17.0  T
  10    -13.6132412 -0.265498E-07  0.123E-03    5.38      36.3  T
  11    -13.6132412 -0.710585E-08  0.138E-04    5.38     323.7  T
  12    -13.6132412 -0.287343E-10  0.936E-06    5.38    4779.1  T
     SCC iter.                  ...        0 min,  0.001 sec
     gradient                   ...        0 min,  0.000 sec
 * total energy  :   -13.5826768 Eh     change        0.3695610E-03 Eh
   gradient norm :     0.0320351 Eh/α   predicted    -0.2094312E-03 (-156.67%)
   displ. norm   :     0.2878614 α      lambda       -0.1560664E-02
   maximum displ.:     0.2093161 α      in ANC's #2, #1, #5, ...

........................................................................
.............................. CYCLE   36 ..............................
........................................................................

 iter      E             dE          RMSdq      gap      omega  full diag
   1    -13.6173363 -0.136173E+02  0.514E-01    5.50       0.0  T
   2    -13.6173867 -0.503691E-04  0.346E-01    5.50       1.0  T
   3    -13.6173705  0.161761E-04  0.214E-01    5.50       1.0  T
   4    -13.6174883 -0.117785E-03  0.348E-02    5.50       1.3  T
   5    -13.6174895 -0.119657E-05  0.268E-02    5.49       1.7  T
   6    -13.6174912 -0.174626E-05  0.126E-02    5.49       3.5  T
   7    -13.6174916 -0.337077E-06  0.628E-03    5.49       7.1  T
   8    -13.6174917 -0.145582E-06  0.356E-03    5.49      12.6  T
   9    -13.6174917 -0.400153E-07  0.880E-04    5.49      50.8  T
  10    -13.6174917 -0.812161E-09  0.376E-04    5.49     118.8  T
     SCC iter.                  ...        0 min,  0.001 sec
     gradient                   ...        0 min,  0.000 sec
 * total energy  :   -13.5831612 Eh     change       -0.4844349E-03 Eh
   gradient norm :     0.0030072 Eh/α   predicted    -0.8449948E-03 (  74.43%)
   displ. norm   :     0.0511686 α      lambda       -0.4417914E-04
   maximum displ.:     0.0369708 α      in ANC's #2, #1, #5, ...

........................................................................
.............................. CYCLE   37 ..............................
........................................................................

 iter      E             dE          RMSdq      gap      omega  full diag
   1    -13.6173390 -0.136173E+02  0.789E-02    5.49       0.0  T
   2    -13.6173391 -0.158498E-06  0.484E-02    5.49       1.0  T
   3    -13.6173392 -0.127248E-06  0.520E-03    5.49       8.6  T
   4    -13.6173393 -0.305137E-07  0.396E-03    5.49      11.3  T
   5    -13.6173393 -0.240915E-07  0.154E-03    5.49      29.0  T
   6    -13.6173393 -0.109923E-08  0.107E-03    5.49      41.8  T
   7    -13.6173393 -0.242042E-08  0.226E-04    5.49     197.7  T
   8    -13.6173393 -0.633023E-10  0.113E-04    5.49     395.5  T
     SCC iter.                  ...        0 min,  0.001 sec
     gradient                   ...        0 min,  0.000 sec
 * total energy  :   -13.5832031 Eh     change       -0.4184855E-04 Eh
   gradient norm :     0.0035237 Eh/α   predicted    -0.2214850E-04 ( -47.07%)
   displ. norm   :     0.4486297 α      lambda       -0.3519108E-03
   maximum displ.:     0.3390706 α      in ANC's #2, #1, #5, ...

........................................................................
.............................. CYCLE   38 ..............................
........................................................................

 iter      E             dE          RMSdq      gap      omega  full diag
   1    -13.6122680 -0.136123E+02  0.744E-01    5.37       0.0  T
   2    -13.6123232 -0.552074E-04  0.470E-01    5.37       1.0  T
   3    -13.6120881  0.235131E-03  0.324E-01    5.37       1.0  T
   4    -13.6124666 -0.378467E-03  0.482E-02    5.38       1.0  T
   5    -13.6124692 -0.263357E-05  0.369E-02    5.38       1.2  T
   6    -13.6124717 -0.248697E-05  0.159E-02    5.38       2.8  T
   7    -13.6124721 -0.426755E-06  0.114E-02    5.38       3.9  T
   8    -13.6124726 -0.518650E-06  0.444E-03    5.38      10.1  T
   9    -13.6124727 -0.421313E-07  0.244E-03    5.39      18.3  T
  10    -13.6124727 -0.342553E-07  0.575E-04    5.39      77.8  T
  11    -13.6124727 -0.153008E-09  0.213E-04    5.39     209.9  T
     SCC iter.                  ...        0 min,  0.001 sec
     gradient                   ...        0 min,  0.000 sec
 * total energy  :   -13.5827584 Eh     change        0.4446706E-03 Eh
   gradient norm :     0.0327036 Eh/α   predicted    -0.2113580E-03 (-147.53%)
   displ. norm   :     0.3125178 α      lambda       -0.1788586E-02
   maximum displ.:     0.2343429 α      in ANC's #2, #1, #5, ...

........................................................................
.............................. CYCLE   39 ..............................
........................................................................

 iter      E             dE          RMSdq      gap      omega  full diag
   1    -13.6172521 -0.136173E+02  0.544E-01    5.51       0.0  T
   2    -13.6173022 -0.501878E-04  0.360E-01    5.50       1.0  T
   3    -13.6172630  0.392218E-04  0.226E-01    5.50       1.0  T
   4    -13.6174057 -0.142647E-03  0.352E-02    5.50       1.3  T
   5    -13.6174068 -0.112501E-05  0.280E-02    5.50       1.6  T
   6    -13.6174086 -0.184362E-05  0.130E-02    5.50       3.5  T
   7    -13.6174090 -0.311719E-06  0.703E-03    5.49       6.4  T
   8    -13.6174092 -0.208644E-06  0.358E-03    5.49      12.5  T
   9    -13.6174092 -0.413468E-07  0.890E-04    5.49      50.2  T
  10    -13.6174092 -0.324949E-09  0.507E-04    5.49      88.1  T
     SCC iter.                  ...        0 min,  0.001 sec
     gradient                   ...        0 min,  0.000 sec
 * total energy  :   -13.5833121 Eh     change       -0.5537271E-03 Eh
   gradient norm :     0.0024843 Eh/α   predicted    -0.9816338E-03 (  77.28%)
   displ. norm   :     0.0482237 α      lambda       -0.3789545E-04
   maximum displ.:     0.0350262 α      in ANC's #2, #1, #5, ...

........................................................................
.............................. CYCLE   40 ..............................
........................................................................

 iter      E             dE          RMSdq      gap      omega  full diag
   1    -13.6173316 -0.136173E+02  0.749E-02    5.49       0.0  T
   2    -13.6173317 -0.134428E-06  0.459E-02    5.49       1.0  T
   3    -13.6173318 -0.105461E-06  0.496E-03    5.49       9.0  T
   4    -13.6173318 -0.305306E-07  0.381E-03    5.49      11.7  T
   5    -13.6173318 -0.140064E-07  0.217E-03    5.49      20.6  T
   6    -13.6173319 -0.118614E-07  0.108E-03    5.49      41.4  T
   7    -13.6173319 -0.998876E-09  0.173E-04    5.49     259.2  T
   8    -13.6173319 -0.127613E-10  0.588E-05    5.49     760.6  T
     SCC iter.                  ...        0 min,  0.001 sec
     gradient                   ...        0 min,  0.000 sec
 * total energy  :   -13.5833484 Eh     change       -0.3624396E-04 Eh
   gradient norm :     0.0029450 Eh/α   predicted    -0.1899219E-04 ( -47.60%)
   displ. norm   :     0.4562859 α      lambda       -0.3306014E-03
   maximum displ.:     0.3430725 α      in ANC's #2, #1, #5, ...

........................................................................
.............................. CYCLE   41 ..............................
........................................................................

 iter      E             dE          RMSdq      gap      omega  full diag
   1    -13.6124034 -0.136124E+02  0.747E-01    5.37       0.0  T
   2    -13.6124548 -0.514280E-04  0.469E-01    5.38       1.0  T
   3    -13.6121939  0.260969E-03  0.321E-01    5.38       1.0  T
   4    -13.6125849 -0.391042E-03  0.477E-02    5.38       1.0  T
   5    -13.6125875 -0.262988E-05  0.367E-02    5.38       1.2  T
   6    -13.6125900 -0.240973E-05  0.160E-02    5.38       2.8  T
   7    -13.6125904 -0.459797E-06  0.113E-02    5.39       3.9  T
   8    -13.6125909 -0.516306E-06  0.434E-03    5.39      10.3  T
   9    -13.6125910 -0.466661E-07  0.220E-03    5.39      20.4  T
  10    -13.6125910 -0.257562E-07  0.693E-04    5.39      64.6  T
  11    -13.6125910 -0.976483E-09  0.152E-04    5.39     293.8  T
     SCC iter.                  ...        0 min,  0.001 sec
     gradient                   ...        0 min,  0.000 sec
 * total energy  :   -13.5828834 Eh     change        0.4649555E-03 Eh
   gradient norm :     0.0323482 Eh/α   predicted    -0.1997052E-03 (-142.95%)
   displ. norm   :     0.3218095 α      lambda       -0.1826075E-02
   maximum displ.:     0.2404698 α      in ANC's #2, #1, #5, ...

........................................................................
.............................. CYCLE   42 ..............................
........................................................................

 iter      E             dE          RMSdq      gap      omega  full diag
   1    -13.6173300 -0.136173E+02  0.552E-01    5.51       0.0  T
   2    -13.6173768 -0.467922E-04  0.362E-01    5.51       1.0  T
   3    -13.6173175  0.593047E-04  0.228E-01    5.50       1.0  T
   4    -13.6174738 -0.156330E-03  0.349E-02    5.50       1.3  T
   5    -13.6174749 -0.108932E-05  0.280E-02    5.50       1.6  T
   6    -13.6174767 -0.180189E-05  0.131E-02    5.50       3.4  T
   7    -13.6174770 -0.282501E-06  0.754E-03    5.50       5.9  T
   8    -13.6174773 -0.259278E-06  0.356E-03    5.49      12.6  T
   9    -13.6174773 -0.408340E-07  0.992E-04    5.49      45.1  T
  10    -13.6174773 -0.337277E-10  0.628E-04    5.49      71.2  T
     SCC iter.                  ...        0 min,  0.001 sec
     gradient                   ...        0 min,  0.000 sec
 * total energy  :   -13.5834464 Eh     change       -0.5629418E-03 Eh
   gradient norm :     0.0022608 Eh/α   predicted    -0.1007593E-02 (  78.99%)
   displ. norm   :     0.0454831 α      lambda       -0.3281028E-04
   maximum displ.:     0.0319714 α      in ANC's #2, #1, #9, ...
 * RMSD in coord.:     0.6018905 α      energy gain  -0.1269632E-02 Eh

generating ANC from model Hessian ...
Using Lindh-Hessian (1995)
 Shifting diagonal of input Hessian by   9.755019908784440E-003
 Lowest  eigenvalues of input Hessian
    0.000000    0.000000    0.000000    0.000000    0.000000    0.000000
    0.010000    0.010098    0.016953    0.019904    0.054772    0.299027
    1.188489    1.403225    1.770129
 Highest eigenvalues
    0.019904    0.054772    0.299027    1.188489    1.403225    1.770129
 

........................................................................
.............................. CYCLE   43 ..............................
........................................................................

 iter      E             dE          RMSdq      gap      omega  full diag
   1    -13.6174372 -0.136174E+02  0.697E-02    5.50       0.0  T
   2    -13.6174373 -0.114506E-06  0.426E-02    5.50       1.0  T
   3    -13.6174374 -0.496375E-07  0.528E-03    5.50       8.5  T
   4    -13.6174374 -0.661331E-07  0.359E-03    5.50      12.4  T
   5    -13.6174374 -0.130570E-07  0.220E-03    5.50      20.3  T
   6    -13.6174375 -0.101294E-07  0.100E-03    5.50      44.7  T
   7    -13.6174375 -0.827425E-09  0.171E-04    5.50     261.6  T
   8    -13.6174375 -0.154809E-10  0.762E-05    5.50     586.9  T
     SCC iter.                  ...        0 min,  0.001 sec
     gradient                   ...        0 min,  0.000 sec
 * total energy  :   -13.5834777 Eh     change       -0.3131959E-04 Eh
   gradient norm :     0.0028521 Eh/α   predicted     0.0000000E+00 (-100.00%)
   displ. norm   :     0.0927728 α      lambda       -0.9340084E-04
   maximum displ.:     0.0893419 α      in ANC's #1, #2, #4, ...

........................................................................
.............................. CYCLE   44 ..............................
........................................................................

 iter      E             dE          RMSdq      gap      omega  full diag
   1    -13.6174448 -0.136174E+02  0.141E-01    5.49       0.0  T
   2    -13.6174459 -0.107373E-05  0.861E-02    5.49       1.0  T
   3    -13.6174427  0.323342E-05  0.302E-02    5.49       1.5  T
   4    -13.6174470 -0.430118E-05  0.722E-03    5.49       6.2  T
   5    -13.6174470 -0.338135E-07  0.515E-03    5.49       8.7  T
   6    -13.6174470 -0.378611E-07  0.234E-03    5.49      19.1  T
   7    -13.6174470 -0.691009E-08  0.467E-04    5.49      95.8  T
   8    -13.6174470 -0.297952E-09  0.155E-04    5.49     289.3  T
     SCC iter.                  ...        0 min,  0.001 sec
     gradient                   ...        0 min,  0.000 sec
 * total energy  :   -13.5835358 Eh     change       -0.5806098E-04 Eh
   gradient norm :     0.0031878 Eh/α   predicted    -0.4710285E-04 ( -18.87%)
   displ. norm   :     0.0992018 α      lambda       -0.8277010E-04
   maximum displ.:     0.0824410 α      in ANC's #1, #4, #2, ...

........................................................................
.............................. CYCLE   45 ..............................
........................................................................

 iter      E             dE          RMSdq      gap      omega  full diag
   1    -13.6175457 -0.136175E+02  0.146E-01    5.49       0.0  T
   2    -13.6175461 -0.475228E-06  0.888E-02    5.49       1.0  T
   3    -13.6175455  0.671912E-06  0.163E-02    5.49       2.7  T
   4    -13.6175466 -0.115871E-05  0.635E-03    5.49       7.0  T
   5    -13.6175467 -0.371397E-07  0.414E-03    5.49      10.8  T
   6    -13.6175467 -0.304624E-07  0.206E-03    5.49      21.7  T
   7    -13.6175467 -0.457979E-08  0.452E-04    5.49      99.0  T
   8    -13.6175467 -0.186473E-09  0.220E-04    5.49     202.9  T
     SCC iter.                  ...        0 min,  0.001 sec
     gradient                   ...        0 min,  0.000 sec
 * total energy  :   -13.5836069 Eh     change       -0.7117747E-04 Eh
   gradient norm :     0.0038638 Eh/α   predicted    -0.4179373E-04 ( -41.28%)
   displ. norm   :     0.2489349 α      lambda       -0.1667173E-03
   maximum displ.:     0.2040151 α      in ANC's #1, #4, #2, ...

........................................................................
.............................. CYCLE   46 ..............................
........................................................................

 iter      E             dE          RMSdq      gap      omega  full diag
   1    -13.6163470 -0.136163E+02  0.360E-01    5.46       0.0  T
   2    -13.6163512 -0.420739E-05  0.220E-01    5.46       1.0  T
   3    -13.6163239  0.272925E-04  0.789E-02    5.46       1.0  T
   4    -13.6163566 -0.327351E-04  0.174E-02    5.46       2.6  T
   5    -13.6163569 -0.270549E-06  0.134E-02    5.46       3.3  T
   6    -13.6163572 -0.342280E-06  0.553E-03    5.46       8.1  T
   7    -13.6163573 -0.401614E-07  0.226E-03    5.46      19.8  T
   8    -13.6163573 -0.128712E-07  0.126E-03    5.46      35.4  T
   9    -13.6163573 -0.466092E-08  0.740E-04    5.46      60.5  T
  10    -13.6163573 -0.171813E-08  0.187E-04    5.46     239.2  T
     SCC iter.                  ...        0 min,  0.001 sec
     gradient                   ...        0 min,  0.000 sec
 * total energy  :   -13.5836460 Eh     change       -0.3908977E-04 Eh
   gradient norm :     0.0128875 Eh/α   predicted    -0.8852572E-04 ( 126.47%)
   displ. norm   :     0.0719082 α      lambda       -0.1764545E-03
   maximum displ.:     0.0697983 α      in ANC's #1, #4, #5, ...

........................................................................
.............................. CYCLE   47 ..............................
........................................................................

 iter      E             dE          RMSdq      gap      omega  full diag
   1    -13.6182158 -0.136182E+02  0.129E-01    5.49       0.0  T
   2    -13.6182186 -0.276824E-05  0.810E-02    5.49       1.0  T
   3    -13.6182153  0.334630E-05  0.555E-02    5.49       1.0  T
   4    -13.6182242 -0.893305E-05  0.821E-03    5.49       5.4  T
   5    -13.6182243 -0.589530E-07  0.624E-03    5.49       7.2  T
   6    -13.6182243 -0.810122E-07  0.335E-03    5.49      13.3  T
   7    -13.6182244 -0.306802E-07  0.128E-03    5.49      35.0  T
   8    -13.6182244 -0.389057E-08  0.874E-04    5.49      51.2  T
   9    -13.6182244 -0.192986E-08  0.503E-04    5.49      88.9  T
     SCC iter.                  ...        0 min,  0.001 sec
     gradient                   ...        0 min,  0.000 sec
 * total energy  :   -13.5836998 Eh     change       -0.5374576E-04 Eh
   gradient norm :     0.0034508 Eh/α   predicted    -0.8868286E-04 (  65.00%)
   displ. norm   :     0.0433019 α      lambda       -0.4441841E-04
   maximum displ.:     0.0411769 α      in ANC's #1, #5, #4, ...

........................................................................
.............................. CYCLE   48 ..............................
........................................................................

 iter      E             dE          RMSdq      gap      omega  full diag
   1    -13.6178566 -0.136179E+02  0.604E-02    5.49       0.0  T
   2    -13.6178568 -0.180702E-06  0.371E-02    5.49       1.2  T
   3    -13.6178568 -0.340772E-07  0.623E-03    5.49       7.2  T
   4    -13.6178569 -0.972597E-07  0.316E-03    5.49      14.2  T
   5    -13.6178569 -0.927226E-09  0.220E-03    5.49      20.3  T
   6    -13.6178569 -0.129862E-07  0.111E-03    5.49      40.4  T
   7    -13.6178569 -0.179142E-08  0.276E-04    5.49     161.9  T
   8    -13.6178569 -0.744187E-10  0.135E-04    5.49     330.2  T
     SCC iter.                  ...        0 min,  0.001 sec
     gradient                   ...        0 min,  0.000 sec
 * total energy  :   -13.5837356 Eh     change       -0.3584520E-04 Eh
   gradient norm :     0.0028728 Eh/α   predicted    -0.2225123E-04 ( -37.92%)
   displ. norm   :     0.1803688 α      lambda       -0.9597965E-04
   maximum displ.:     0.1629380 α      in ANC's #1, #4, #2, ...

........................................................................
.............................. CYCLE   49 ..............................
........................................................................

 iter      E             dE          RMSdq      gap      omega  full diag
   1    -13.6162547 -0.136163E+02  0.255E-01    5.48       0.0  T
   2    -13.6162570 -0.227818E-05  0.156E-01    5.48       1.0  T
   3    -13.6162410  0.159463E-04  0.613E-02    5.48       1.0  T
   4    -13.6162602 -0.191918E-04  0.118E-02    5.48       3.8  T
   5    -13.6162604 -0.179812E-06  0.530E-03    5.48       8.4  T
   6    -13.6162605 -0.312264E-07  0.339E-03    5.48      13.2  T
   7    -13.6162605 -0.135173E-07  0.118E-03    5.48      38.1  T
   8    -13.6162605 -0.256293E-08  0.405E-04    5.48     110.5  T
   9    -13.6162605 -0.234808E-09  0.237E-04    5.48     188.5  T
     SCC iter.                  ...        0 min,  0.001 sec
     gradient                   ...        0 min,  0.000 sec
 * total energy  :   -13.5837469 Eh     change       -0.1129989E-04 Eh
   gradient norm :     0.0113675 Eh/α   predicted    -0.4955240E-04 ( 338.52%)
   displ. norm   :     0.0754722 α      lambda       -0.1045414E-03
   maximum displ.:     0.0670786 α      in ANC's #1, #4, #2, ...

........................................................................
.............................. CYCLE   50 ..............................
........................................................................

 iter      E             dE          RMSdq      gap      omega  full diag
   1    -13.6176455 -0.136176E+02  0.113E-01    5.50       0.0  T
   2    -13.6176469 -0.141750E-05  0.695E-02    5.50       1.0  T
   3    -13.6176423  0.457943E-05  0.459E-02    5.50       1.0  T
   4    -13.6176497 -0.739236E-05  0.588E-03    5.50       7.6  T
   5    -13.6176497 -0.285768E-07  0.448E-03    5.50      10.0  T
[...]
   6    -13.6180804 -0.143719E-07  0.231E-03    5.50      19.3  T
   7    -13.6180804 -0.391927E-08  0.545E-04    5.50      82.1  T
   8    -13.6180804 -0.265704E-09  0.187E-04    5.50     238.5  T
     SCC iter.                  ...        0 min,  0.001 sec
     gradient                   ...        0 min,  0.000 sec
 * total energy  :   -13.5839772 Eh     change       -0.1927613E-04 Eh
   gradient norm :     0.0012921 Eh/α   predicted    -0.8782820E-05 ( -54.44%)
   displ. norm   :     0.1008761 α      lambda       -0.6950809E-05
   maximum displ.:     0.0773573 α      in ANC's #1, #2, #6, ...

........................................................................
.............................. CYCLE   60 ..............................
........................................................................

 iter      E             dE          RMSdq      gap      omega  full diag
   1    -13.6176240 -0.136176E+02  0.155E-01    5.50       0.0  T
   2    -13.6176244 -0.394725E-06  0.940E-02    5.50       1.0  T
   3    -13.6176242  0.162377E-06  0.128E-02    5.50       3.5  T
   4    -13.6176248 -0.608100E-06  0.703E-03    5.50       6.4  T
   5    -13.6176249 -0.812276E-07  0.264E-03    5.50      16.9  T
   6    -13.6176249 -0.620383E-08  0.149E-03    5.50      30.0  T
   7    -13.6176249 -0.189824E-08  0.375E-04    5.50     119.2  T
   8    -13.6176249 -0.118023E-09  0.118E-04    5.50     379.5  T
     SCC iter.                  ...        0 min,  0.001 sec
     gradient                   ...        0 min,  0.000 sec
 * total energy  :   -13.5839781 Eh     change       -0.8862429E-06 Eh
   gradient norm :     0.0035542 Eh/α   predicted    -0.3490239E-05 ( 293.82%)
   displ. norm   :     0.0136254 α      lambda       -0.9781597E-05
   maximum displ.:     0.0114692 α      in ANC's #1, #3, #2, ...

........................................................................
.............................. CYCLE   61 ..............................
........................................................................

 iter      E             dE          RMSdq      gap      omega  full diag
   1    -13.6179357 -0.136179E+02  0.187E-02    5.50       0.0  T
   2    -13.6179358 -0.442666E-07  0.111E-02    5.50       4.0  T
   3    -13.6179357  0.111093E-06  0.789E-03    5.50       5.7  T
   4    -13.6179359 -0.196882E-06  0.104E-03    5.50      42.9  T
   5    -13.6179359 -0.892690E-09  0.774E-04    5.50      57.8  T
   6    -13.6179359 -0.108723E-08  0.407E-04    5.50     110.0  T
     SCC iter.                  ...        0 min,  0.001 sec
     gradient                   ...        0 min,  0.001 sec
 * total energy  :   -13.5839850 Eh     change       -0.6887998E-05 Eh
   gradient norm :     0.0015413 Eh/α   predicted    -0.4892557E-05 ( -28.97%)
   displ. norm   :     0.0486844 α      lambda       -0.6479193E-05
   maximum displ.:     0.0304560 α      in ANC's #2, #1, #3, ...

........................................................................
.............................. CYCLE   62 ..............................
........................................................................

 iter      E             dE          RMSdq      gap      omega  full diag
   1    -13.6183067 -0.136183E+02  0.814E-02    5.50       0.0  T
   2    -13.6183069 -0.145389E-06  0.498E-02    5.50       1.0  T
   3    -13.6183063  0.599727E-06  0.125E-02    5.50       3.6  T
   4    -13.6183071 -0.786579E-06  0.409E-03    5.50      10.9  T
   5    -13.6183071 -0.197273E-07  0.250E-03    5.50      17.9  T
   6    -13.6183071 -0.117239E-07  0.120E-03    5.50      37.3  T
   7    -13.6183071 -0.199930E-08  0.376E-04    5.50     119.0  T
   8    -13.6183071 -0.165933E-09  0.269E-04    5.50     166.5  T
     SCC iter.                  ...        0 min,  0.001 sec
     gradient                   ...        0 min,  0.000 sec
 * total energy  :   -13.5839885 Eh     change       -0.3551947E-05 Eh
   gradient norm :     0.0015504 Eh/α   predicted    -0.3242075E-05 (  -8.72%)
   displ. norm   :     0.0298289 α      lambda       -0.4195824E-05
   maximum displ.:     0.0208597 α      in ANC's #1, #4, #5, ...

........................................................................
.............................. CYCLE   63 ..............................
........................................................................

 iter      E             dE          RMSdq      gap      omega  full diag
   1    -13.6182688 -0.136183E+02  0.419E-02    5.52       0.0  T
   2    -13.6182693 -0.444771E-06  0.300E-02    5.52       1.5  T
   3    -13.6182694 -0.114830E-06  0.175E-02    5.52       2.5  T
   4    -13.6182701 -0.719953E-06  0.388E-03    5.52      11.5  T
   5    -13.6182701 -0.150986E-07  0.313E-03    5.51      14.3  T
   6    -13.6182702 -0.252306E-07  0.162E-03    5.51      27.7  T
   7    -13.6182702 -0.956017E-08  0.524E-04    5.51      85.4  T
   8    -13.6182702 -0.571777E-09  0.299E-04    5.51     149.8  T
     SCC iter.                  ...        0 min,  0.001 sec
     gradient                   ...        0 min,  0.000 sec
 * total energy  :   -13.5839899 Eh     change       -0.1425356E-05 Eh
   gradient norm :     0.0010984 Eh/α   predicted    -0.2098151E-05 (  47.20%)
   displ. norm   :     0.0606027 α      lambda       -0.4181255E-05
   maximum displ.:     0.0431653 α      in ANC's #1, #2, #6, ...

........................................................................
.............................. CYCLE   64 ..............................
........................................................................

 iter      E             dE          RMSdq      gap      omega  full diag
   1    -13.6178825 -0.136179E+02  0.955E-02    5.50       0.0  T
   2    -13.6178829 -0.344591E-06  0.580E-02    5.50       1.0  T
   3    -13.6178798  0.302084E-05  0.275E-02    5.50       1.6  T
   4    -13.6178835 -0.361125E-05  0.465E-03    5.50       9.6  T
   5    -13.6178835 -0.193847E-07  0.351E-03    5.51      12.7  T
   6    -13.6178835 -0.259858E-07  0.118E-03    5.51      37.8  T
   7    -13.6178835 -0.161986E-08  0.507E-04    5.51      88.3  T
   8    -13.6178835 -0.478046E-09  0.347E-04    5.51     129.0  T
     SCC iter.                  ...        0 min,  0.001 sec
     gradient                   ...        0 min,  0.000 sec
 * total energy  :   -13.5839912 Eh     change       -0.1264227E-05 Eh
   gradient norm :     0.0012615 Eh/α   predicted    -0.2092594E-05 (  65.52%)
   displ. norm   :     0.0230876 α      lambda       -0.2152779E-05
   maximum displ.:     0.0157134 α      in ANC's #1, #2, #4, ...

........................................................................
.............................. CYCLE   65 ..............................
........................................................................

 iter      E             dE          RMSdq      gap      omega  full diag
   1    -13.6181390 -0.136181E+02  0.300E-02    5.51       0.0  T
   2    -13.6181390 -0.155063E-07  0.181E-02    5.51       2.5  T
   3    -13.6181389  0.640470E-07  0.409E-03    5.51      10.9  T
   4    -13.6181390 -0.824874E-07  0.106E-03    5.51      42.1  T
   5    -13.6181390 -0.149350E-08  0.515E-04    5.51      86.9  T
   6    -13.6181390 -0.338146E-09  0.332E-04    5.51     134.8  T
     SCC iter.                  ...        0 min,  0.001 sec
     gradient                   ...        0 min,  0.000 sec
 * total energy  :   -13.5839924 Eh     change       -0.1217344E-05 Eh
   gradient norm :     0.0005138 Eh/α   predicted    -0.1078219E-05 ( -11.43%)
   displ. norm   :     0.0057834 α      lambda       -0.5082097E-06
   maximum displ.:     0.0037867 α      in ANC's #2, #4, #1, ...

   *** GEOMETRY OPTIMIZATION CONVERGED AFTER 65 ITERATIONS ***

------------------------------------------------------------------------
 total energy gain   :        -0.0270461 Eh      -16.9717 kcal/mol
 total RMSD          :         1.7064771 a0        0.9030 Å
 total power (kW/mol):        -1.0924532 (step) -600.6814 (real)
------------------------------------------------------------------------

 ANCopt (total)                0 d,  0 h,  0 min,  0.118 sec
 optimizer setup                ...        0 min,  0.000 sec (  0.073%)
 model hessian                  ...        0 min,  0.000 sec (  0.210%)
 ANC generation                 ...        0 min,  0.000 sec (  0.148%)
 coordinate transformation      ...        0 min,  0.000 sec (  0.373%)
 single point calculation       ...        0 min,  0.111 sec ( 93.866%)
 optimization log               ...        0 min,  0.002 sec (  1.425%)
 hessian update                 ...        0 min,  0.001 sec (  0.555%)
 rational function              ...        0 min,  0.002 sec (  1.343%)

================
 final structure:
================
5
 xtb: 6.6.1 (8d0f1dd)
O           -0.17440051625888        4.65946049760421        1.76588091724671
Cl          -0.88440110342044        5.50239932858906        0.65245605612439
H            2.10064610790393        4.78493460395817        3.84584380188248
O            1.92536226656868        5.51079503475266        3.24221849217779
H            1.16876743420237        5.23820274631462        2.68482601187080
 
 Bond Distances (Angstroems)
 ---------------------------
O1-Cl2=1.5666        Cl2-O1=1.5666        H3-O4=0.9602         O4-H3=0.9602         O4-H5=0.9785         H5-O4=0.9785         
 O  H  Rav=0.9693 sigma=0.0091  Rmin=0.9602  Rmax=0.9785     2
 Cl O  Rav=1.5666 sigma=0.0000  Rmin=1.5666  Rmax=1.5666     1
 
 selected bond angles (degree)
 --------------------
H5-O4-H3=106.78                
 
 selected dihedral angles (degree)
 ---------------------------------

 
 CMA Distance (Angstroems)
 ---------------------------
R(CMA):  3.4098
           -------------------------------------------------
          |                Final Singlepoint                |
           -------------------------------------------------

          ...................................................
          :                      SETUP                      :
          :.................................................:
          :  # basis functions                  20          :
          :  # atomic orbitals                  19          :
          :  # shells                            9          :
          :  # electrons                        21          :
          :  max. iterations                   800          :
          :  Hamiltonian                  GFN2-xTB          :
          :  restarted?                      false          :
          :  GBSA solvation                  false          :
          :  PC potential                    false          :
          :  electronic temp.         6000.0000000     K    :
          :  accuracy                    1.0000000          :
          :  -> integral cutoff          0.2500000E+02      :
          :  -> integral neglect         0.1000000E-07      :
          :  -> SCF convergence          0.1000000E-05 Eh   :
          :  -> wf. convergence          0.1000000E-03 e    :
          :  Broyden damping             0.4000000          :
          ...................................................

 iter      E             dE          RMSdq      gap      omega  full diag
   1    -13.6181390 -0.136181E+02  0.618E-05    5.51       0.0  T
   2    -13.6181390 -0.154898E-11  0.435E-05    5.51    1028.0  T
   3    -13.6181390 -0.174438E-11  0.216E-05    5.51    2070.1  T

   *** convergence criteria satisfied after 3 iterations ***

         #    Occupation            Energy/Eh            Energy/eV
      -------------------------------------------------------------
         1        2.0000           -1.0959340             -29.8219
       ...           ...                  ...                  ...
         5        1.9994           -0.5683343             -15.4652
         6        1.9982           -0.5454047             -14.8412
         7        1.9981           -0.5443733             -14.8132
         8        1.9923           -0.5181237             -14.0989
         9        1.8617           -0.4605537             -12.5323
        10        1.5717           -0.4314190             -11.7395
        11        1.5715           -0.4314013             -11.7390 (HOMO)
        12        0.0073           -0.2290658              -6.2332 (LUMO)
        13        0.0000           -0.0417281              -1.1355
        14        0.0000           -0.0417055              -1.1349
        15        0.0000           -0.0191365              -0.5207
        16        0.0000           -0.0177003              -0.4816
       ...           ...                  ...                  ...
        19                          0.2841121               7.7311
      -------------------------------------------------------------
                  HL-Gap            0.2023355 Eh            5.5058 eV
             Fermi-level           -0.3741238 Eh          -10.1804 eV

 SCC (total)                   0 d,  0 h,  0 min,  0.001 sec
 SCC setup                      ...        0 min,  0.000 sec (  4.389%)
 Dispersion                     ...        0 min,  0.000 sec (  1.616%)
 classical contributions        ...        0 min,  0.000 sec (  0.992%)
 integral evaluation            ...        0 min,  0.000 sec ( 17.484%)
 iterations                     ...        0 min,  0.001 sec ( 39.063%)
 molecular gradient             ...        0 min,  0.000 sec ( 26.116%)
 printout                       ...        0 min,  0.000 sec (  7.328%)

         :::::::::::::::::::::::::::::::::::::::::::::::::::::
         ::                     SUMMARY                     ::
         :::::::::::::::::::::::::::::::::::::::::::::::::::::
         :: total energy             -13.583992418479 Eh    ::
         :: gradient norm              0.000516173417 Eh/a0 ::
         :: HOMO-LUMO gap              5.505829059990 eV    ::
         ::.................................................::
         :: SCC energy               -13.618139003629 Eh    ::
         :: -> isotropic ES            0.043619292259 Eh    ::
         :: -> anisotropic ES         -0.003852341902 Eh    ::
         :: -> anisotropic XC         -0.004575746317 Eh    ::
         :: -> dispersion             -0.001334532588 Eh    ::
         :: repulsion energy           0.034146791689 Eh    ::
         :: add. restraining           0.000000000000 Eh    ::
         :: total charge               0.000000000011 e     ::
         :::::::::::::::::::::::::::::::::::::::::::::::::::::

           -------------------------------------------------
          |                Property Printout                |
           -------------------------------------------------

    * Orbital Energies and Occupations

         #    Occupation            Energy/Eh            Energy/eV
      -------------------------------------------------------------
         1        2.0000           -1.0959340             -29.8219
         2        2.0000           -0.6927373             -18.8503
         3        2.0000           -0.6874683             -18.7070
         4        1.9998           -0.5884799             -16.0134
         5        1.9994           -0.5683343             -15.4652
         6        1.9982           -0.5454047             -14.8412
         7        1.9981           -0.5443733             -14.8132
         8        1.9923           -0.5181237             -14.0989
         9        1.8617           -0.4605537             -12.5323
        10        1.5717           -0.4314190             -11.7395
        11        1.5715           -0.4314013             -11.7390 (HOMO)
        12        0.0073           -0.2290658              -6.2332 (LUMO)
        13        0.0000           -0.0417281              -1.1355
        14        0.0000           -0.0417055              -1.1349
        15        0.0000           -0.0191365              -0.5207
        16        0.0000           -0.0177003              -0.4816
        17                          0.0934173               2.5420
        18                          0.2092970               5.6953
        19                          0.2841121               7.7311
      -------------------------------------------------------------
                  HL-Gap            0.2023355 Eh            5.5058 eV
             Fermi-level           -0.3741238 Eh          -10.1804 eV

     #   Z          covCN         q      C6AA      α(0)
     1   8 O        0.939    -0.367    20.999     6.146
     2  17 Cl       0.939     0.244    92.181    14.689
     3   1 H        0.805     0.301     0.717     1.330
     4   8 O        1.608    -0.515    23.235     6.506
     5   1 H        0.803     0.337     0.620     1.237

 Mol. C6AA /au·bohr⁶  :        423.153566
 Mol. C8AA /au·bohr⁸  :      12014.032865
 Mol. α(0) /au        :         29.906960


Wiberg/Mayer (AO) data.
largest (>0.10) Wiberg bond orders for each atom

 ---------------------------------------------------------------------------
     #   Z sym  total        # sym  WBO       # sym  WBO       # sym  WBO
 ---------------------------------------------------------------------------
     1   8 O    1.347 --     2 Cl   1.274
     2  17 Cl   1.285 --     1 O    1.274
     3   1 H    0.908 --     4 O    0.908
     4   8 O    1.763 --     3 H    0.908     5 H    0.828
     5   1 H    0.885 --     4 O    0.828
 ---------------------------------------------------------------------------

Topologies differ in total number of bonds
Writing topology from bond orders to xtbtopo.mol

molecular dipole:
                 x           y           z       tot (Debye)
 q only:       -0.218       0.000      -0.179
   full:       -0.397      -0.175      -0.240       1.261
molecular quadrupole (traceless):
                xx          xy          yy          xz          yz          zz
 q only:       -0.410      -6.729      -1.174       1.345      -5.673       1.584
  q+dip:        1.055     -10.235      -4.481       0.035      -7.817       3.426
   full:        0.894     -10.491      -4.517       0.486      -8.310       3.623

           -------------------------------------------------
          |                Geometry Summary                 |
           -------------------------------------------------

      molecular mass/u    :       69.4676289
   center of mass at/Å    :       -0.0006463       5.2959490       1.5811772
  moments of inertia/u·Å² :        0.1040798E+02   0.1736075E+03   0.1840135E+03
rotational constants/cm⁻¹ :        0.1619683E+01   0.9710200E-01   0.9161086E-01

 * 2 selected distances

     #   Z          #   Z                                           value/Å
     3   1 H        4   8 O                                       0.9601883 (min)
     4   8 O        5   1 H                                       0.9784829 (max)

 * 1 distinct bonds (by element types)

   Z      Z             #   av. dist./Å        max./Å        min./Å
   1 H    8 O           2     0.9693356     0.9784829     0.9601883


optimized geometry written to: xtbopt.xyz


           -------------------------------------------------
          | TOTAL ENERGY              -13.583992418479 Eh   |
          | GRADIENT NORM               0.000516173417 Eh/α |
          | HOMO-LUMO GAP               5.505829059990 eV   |
           -------------------------------------------------

------------------------------------------------------------------------
 * finished run on 2025/04/07 at 09:40:51.922     
------------------------------------------------------------------------
 total:
 * wall-time:     0 d,  0 h,  0 min,  0.203 sec
 *  cpu-time:     0 d,  0 h,  0 min,  1.153 sec
 * ratio c/w:     5.686 speedup
 SCF:
 * wall-time:     0 d,  0 h,  0 min,  0.017 sec
 *  cpu-time:     0 d,  0 h,  0 min,  0.131 sec
 * ratio c/w:     7.543 speedup
 ANC optimizer:
 * wall-time:     0 d,  0 h,  0 min,  0.120 sec
 *  cpu-time:     0 d,  0 h,  0 min,  0.962 sec
 * ratio c/w:     7.996 speedup

