5
 energy: -13.556946346801 gnorm: 0.125239262872 xtb: 6.6.1 (8d0f1dd)
O           -0.05441522745670        4.62681069865647        0.69705452100801
Cl          -0.81631383507979        5.54948977635488        1.75560280783171
H            1.14158830843886        5.29535680458161        3.89101492945312
O            2.04124490027493        5.46719642945296        3.23155931036835
H            1.82387004281895        4.75693850217252        2.61599371064127
5
 energy: -13.572257954785 gnorm: 0.069514970255 xtb: 6.6.1 (8d0f1dd)
O           -0.04272973183576        4.62200719353086        0.73188104040830
Cl          -0.83446616364488        5.55852343864583        1.73466910667504
H            1.17752799514850        5.30593877475832        3.87208557553774
O            1.99620744986122        5.43730880316526        3.27077666341779
H            1.83943463946710        4.77201400111826        2.58181289326349
5
 energy: -13.573148382621 gnorm: 0.092888240171 xtb: 6.6.1 (8d0f1dd)
O           -0.02276041750914        4.61970107817873        0.77148563532566
Cl          -0.84402155706135        5.57341003690341        1.70381836587977
H            1.24735294487294        5.29702413136752        3.87203180153176
O            1.91475429492901        5.43022470665217        3.27855316457271
H            1.84064892376466        4.77543225811681        2.56533631199235
5
 energy: -13.576135809928 gnorm: 0.028065082071 xtb: 6.6.1 (8d0f1dd)
O            0.00665529874560        4.61764498743682        0.78729841001771
Cl          -0.85672489144947        5.58446078112808        1.68082263448031
H            1.26321597132168        5.27546677052819        3.93926100337451
O            1.91340430531990        5.44997002054555        3.22672909242034
H            1.80942350505838        4.76824965158000        2.55711413900937
5
 energy: -13.576854873949 gnorm: 0.019183236094 xtb: 6.6.1 (8d0f1dd)
O            0.01817188258295        4.60409525935485        0.82757722048567
Cl          -0.87325249883930        5.58859932678646        1.67624711683170
H            1.23048440223540        5.28235204334092        3.89424134981536
O            1.95840510284925        5.40357668818383        3.27708854102664
H            1.80216530016773        4.81716889355271        2.51607105114272
5
 energy: -13.577357054747 gnorm: 0.019907996081 xtb: 6.6.1 (8d0f1dd)
O            0.06776443006074        4.61402776759504        0.88058218485507
Cl          -0.89336888777630        5.58792507209756        1.66995707335559
H            1.23326443440780        5.28394338127870        3.87938585362181
O            1.95668133108385        5.38442786392853        3.26532231971561
H            1.77163288121994        4.82546812631894        2.49597784775403
5
 energy: -13.578443743830 gnorm: 0.037955902835 xtb: 6.6.1 (8d0f1dd)
O            0.20988336426690        4.63359104298391        1.03924682598625
Cl          -0.90726294683234        5.57426598728400        1.67179734353127
H            1.21707864058051        5.29981631152305        3.83163456743300
O            1.96873244698229        5.30094084368696        3.24836557957733
H            1.64754268399869        4.88717802574088        2.40018096277422
5
 energy: -13.579388570248 gnorm: 0.018190464524 xtb: 6.6.1 (8d0f1dd)
O            0.32089116961056        4.68065523630244        1.15980901463696
Cl          -0.87166286887547        5.54572662189783        1.70769105124753
H            1.19242615446214        5.31964808848639        3.78564032671713
O            1.92034154305213        5.26739501506126        3.17921181949330
H            1.57397819074675        4.88236724947072        2.35887306720730
5
 energy: -13.579889032101 gnorm: 0.010141400439 xtb: 6.6.1 (8d0f1dd)
O            0.25952508243085        4.68713394996170        1.08334637268566
Cl          -0.91081907625768        5.52641506243100        1.67450223256968
H            1.21934294847509        5.34422358951878        3.82675495739021
O            1.96107906755701        5.25970781637255        3.21441395807648
H            1.60684616679095        4.87831179293450        2.39220775858033
5
 energy: -13.577192581181 gnorm: 0.061386622317 xtb: 6.6.1 (8d0f1dd)
O            0.31059741440956        4.70212910406218        1.15475945595588
Cl          -1.04951229557033        5.53433361919009        1.57890936633269
H            1.25999151022154        5.35026050547423        3.85819407949009
O            2.00514284026124        5.21281028528535        3.23042014745259
H            1.60975471967419        4.89625869720668        2.36894223007107
5
 energy: -13.580499063787 gnorm: 0.013212135590 xtb: 6.6.1 (8d0f1dd)
O            0.25939022255561        4.67294542246630        1.12156230406394
Cl          -0.96125468627642        5.54935718266621        1.60122473073638
H            1.25945096704443        5.31414524327983        3.86505785452717
O            1.96567020585270        5.25188691742046        3.22391624649940
H            1.61271747981976        4.90745744538591        2.37946414347526
5
 energy: -13.579953724687 gnorm: 0.028200434730 xtb: 6.6.1 (8d0f1dd)
O            0.30565618558386        4.70952722613004        1.15718684552838
Cl          -0.93776207020374        5.50400293626025        1.63393869110533
H            1.23786227128740        5.35535316342682        3.82284399996359
O            1.98209387319679        5.20460835721898        3.21504482972550
H            1.54812392913193        4.92230052818243        2.36221091297957
5
 energy: -13.580888680132 gnorm: 0.008723658190 xtb: 6.6.1 (8d0f1dd)
O            0.27937822450344        4.70073981050446        1.15137322331750
Cl          -0.97939339921205        5.52637550463906        1.59046142969811
H            1.25809867717361        5.32960376007888        3.84488377571956
O            1.98075763455074        5.22929005782116        3.21759370447479
H            1.59713305198041        4.90978307817504        2.38691314609231
5
 energy: -13.580957266150 gnorm: 0.019258312641 xtb: 6.6.1 (8d0f1dd)
O            0.27233632822231        4.67786350509578        1.17374226317486
Cl          -0.99875602225051        5.54689318091414        1.53113298820355
H            1.30077255576406        5.29826352524109        3.89176139910296
O            1.98122220608379        5.22329202588234        3.22785091617574
H            1.58039912117636        4.94947997408546        2.36673771264493
5
 energy: -13.581344225040 gnorm: 0.007386864975 xtb: 6.6.1 (8d0f1dd)
O            0.27296746832894        4.69837148423907        1.17411598711243
Cl          -1.01934007845355        5.52892976783502        1.51907323224744
H            1.30730629489474        5.31203945693457        3.88771831278194
O            1.99564619097381        5.21344163923963        3.22698716921409
H            1.57939431325216        4.94300986297043        2.38333057794627
5
 energy: -13.581667942922 gnorm: 0.007218972057 xtb: 6.6.1 (8d0f1dd)
O            0.27000083097115        4.71941512322238        1.19447345545246
Cl          -1.06401411548788        5.51137061994854        1.46207472705176
H            1.34119454452721        5.31379324141671        3.90315228625658
O            2.02078099664658        5.19246855563564        3.23200710328486
H            1.56801193233907        4.95874467099539        2.39951770725655
5
 energy: -13.581935610647 gnorm: 0.008194405395 xtb: 6.6.1 (8d0f1dd)
O            0.25832968748543        4.73848834881507        1.21728734289435
Cl          -1.11292924552883        5.49336404569996        1.37720568753528
H            1.40062338861423        5.30568122095686        3.94250065511111
O            2.04570514118865        5.17039032832819        3.23764539540300
H            1.54424521723665        4.98786826741857        2.41658619835848
5
 energy: -13.582096612356 gnorm: 0.004865870957 xtb: 6.6.1 (8d0f1dd)
O            0.23695926068079        4.74587007361466        1.24020439193467
Cl          -1.14354250222417        5.48887595347882        1.30857211547569
H            1.43879615585040        5.28511601966427        3.96292994076577
O            2.06168177539560        5.16304400383139        3.24515180791439
H            1.54207949929347        5.01288616062959        2.43436702321162
5
 energy: -13.582145298156 gnorm: 0.006807438943 xtb: 6.6.1 (8d0f1dd)
O            0.22687563556481        4.76142983831988        1.25722362755793
Cl          -1.17377273421264        5.47412599189724        1.24041552950052
H            1.49228483320880        5.27515163360528        4.00248550140456
O            2.07296536204849        5.15223888264070        3.24291494857434
H            1.51762109238662        5.03284586475563        2.44818567226479
5
 energy: -13.582176739555 gnorm: 0.004595004291 xtb: 6.6.1 (8d0f1dd)
O            0.22562729997647        4.76139680045562        1.25617108563121
Cl          -1.16535177878066        5.47385536137236        1.24788344756797
H            1.48652862345808        5.27466805090252        3.99632072488965
O            2.07041309722331        5.15600177684422        3.24187241360159
H            1.51875694711888        5.02987022164401        2.44897760761174
5
 energy: -13.582193178810 gnorm: 0.007516215387 xtb: 6.6.1 (8d0f1dd)
O            0.22290674622953        4.76712600769416        1.27674498426097
Cl          -1.17842949352860        5.47224541041333        1.22282160225207
H            1.49405223077018        5.26504725885604        3.99213046366427
O            2.07813717112827        5.15357565040999        3.24388179617473
H            1.51930753439668        5.03779788384524        2.45564643295007
5
 energy: -13.582298677173 gnorm: 0.010477580576 xtb: 6.6.1 (8d0f1dd)
O            0.21476197124223        4.77512060477329        1.28907658123701
Cl          -1.18263109888079        5.48337363113574        1.21204089012862
H            1.48805341499902        5.23885577601687        3.99573491583104
O            2.08237905647805        5.22377739343299        3.23654941328368
H            1.53341084515748        4.97466480585982        2.45782347882171
5
 energy: -13.582420868359 gnorm: 0.002643359698 xtb: 6.6.1 (8d0f1dd)
O            0.21039629524365        4.76644613332931        1.30056100586873
Cl          -1.18254979905865        5.48046056714826        1.20099082160298
H            1.49497039422524        5.23997895669894        3.99712693426284
O            2.08255160879744        5.19466823079351        3.23820234503740
H            1.53060568978834        5.01423832324871        2.45434417253013
5
 energy: -13.582477632979 gnorm: 0.004802808575 xtb: 6.6.1 (8d0f1dd)
O            0.19959924272641        4.75577607067597        1.31805527961056
Cl          -1.18189784637660        5.48730423018789        1.18344122434851
H            1.50075350417673        5.22134307659217        4.00103277462637
O            2.08507150328119        5.21072093044342        3.23503658334651
H            1.53244778518827        5.02064790331925        2.45365941737012
5
 energy: -13.582378390700 gnorm: 0.023261808666 xtb: 6.6.1 (8d0f1dd)
O            0.15718137127801        4.71736886978244        1.38272582822163
Cl          -1.18089691992560        5.51142227036601        1.11320380020599
H            1.52938337833979        5.15111658126365        4.01547143448653
O            2.09407854358636        5.26970943387843        3.22534317893055
H            1.53622781571737        5.04617505592812        2.45448103745733
5
 energy: -13.582574134818 gnorm: 0.004437646318 xtb: 6.6.1 (8d0f1dd)
O            0.18067476173354        4.74615822866854        1.34629299187750
Cl          -1.18532268998632        5.49359211576953        1.15030758654854
H            1.51511511013986        5.19502485976290        4.00612927308409
O            2.08936986560955        5.23080851924900        3.23385034383085
H            1.53613714149934        5.03020848776872        2.45464508396108
5
 energy: -13.582618331968 gnorm: 0.004459157093 xtb: 6.6.1 (8d0f1dd)
O            0.17149422138815        4.74108157259013        1.35813680124882
Cl          -1.18614682012882        5.49637121917577        1.13447478279728
H            1.52404222576649        5.18266206762026        4.00928790268751
O            2.09098242093002        5.23965904381942        3.23304107959961
H            1.53560214104013        5.03601830801310        2.45628471296883
5
 energy: -13.582440861942 gnorm: 0.027420411579 xtb: 6.6.1 (8d0f1dd)
O            0.10353923409312        4.69718687531711        1.44129666481504
Cl          -1.18445226515181        5.51961011603972        1.02064760850357
H            1.59482392649671        5.08748770353751        4.03447761775905
O            2.09956402017620        5.31050712903701        3.22393512025943
H            1.52249927338166        5.08100038728724        2.47086826796491
5
 energy: -13.582760822954 gnorm: 0.002127838792 xtb: 6.6.1 (8d0f1dd)
O            0.14296076776746        4.72756175042359        1.38866935269871
Cl          -1.18612855233164        5.50258161483911        1.08740516743345
H            1.55680567807889        5.14722363077974        4.01923447212168
O            2.09385391805736        5.26442681961975        3.23137998087654
H            1.52848237742388        5.05399839555646        2.46453630617166
5
 energy: -13.582818261571 gnorm: 0.002406054642 xtb: 6.6.1 (8d0f1dd)
O            0.13239432178002        4.72025142376373        1.40021736140462
Cl          -1.18301659872806        5.50612319977547        1.07074929711472
H            1.57010032597077        5.13181961815926        4.02309712676218
O            2.09342091656084        5.27672252996350        3.22930645789998
H            1.52307522341236        5.06087543955668        2.46785503612052
5
 energy: -13.580984062351 gnorm: 0.055550178314 xtb: 6.6.1 (8d0f1dd)
O            0.03749465660635        4.65600454669178        1.51567842189660
Cl          -1.15569301354772        5.53576577045797        0.91593948739726
H            1.68939370127272        4.99288966836404        4.05389641478372
O            2.08847326499774        5.37919256372817        3.21214578949212
H            1.47630557966672        5.13193966197657        2.49356516573227
5
 energy: -13.582962977324 gnorm: 0.003366997045 xtb: 6.6.1 (8d0f1dd)
O            0.09686065349663        4.70446842296672        1.43912056560035
Cl          -1.17892694707902        5.51007623083406        1.00971447654752
H            1.61865686601264        5.08962682367382        4.03530972744573
O            2.09491499606858        5.29773014883172        3.22701521517824
H            1.50446862049706        5.09389058491229        2.48006529453017
5
 energy: -13.582999918634 gnorm: 0.003449478937 xtb: 6.6.1 (8d0f1dd)
O            0.09710586948287        4.70366173949721        1.43998559832515
Cl          -1.17166973733839        5.51215983628448        1.01205694401899
H            1.62090419112326        5.08369778123760        4.03299344314584
O            2.09076596995972        5.31122681441262        3.22402487282406
H            1.49886789576842        5.08504603978670        2.48216442098796
5
 energy: -13.583046361912 gnorm: 0.004328233909 xtb: 6.6.1 (8d0f1dd)
O            0.09118174535614        4.69909799441399        1.45453061659057
Cl          -1.16493849845623        5.51431721070071        1.00151241060488
H            1.62887417412300        5.07086959530195        4.03126721560999
O            2.08726785410025        5.32109322005548        3.22141250523319
H            1.49358891387272        5.09041419074646        2.48250253126336
5
 energy: -13.582676800897 gnorm: 0.032480108123 xtb: 6.6.1 (8d0f1dd)
O            0.04056277872175        4.66167420729691        1.56154940306348
Cl          -1.11794491494700        5.52905867704671        0.91361168738028
H            1.69806694882849        4.97491995056033        4.02360793100087
O            2.06409027236643        5.38549044537064        3.20565973660705
H            1.45119910402613        5.14464893094392        2.48679652125028
5
 energy: -13.583161235766 gnorm: 0.003066912060 xtb: 6.6.1 (8d0f1dd)
O            0.07569660408478        4.68832456702103        1.48964330014748
Cl          -1.14933774861472        5.51726288044804        0.97357490013753
H            1.65141004926738        5.04223465113479        4.02744082498205
O            2.07953516802612        5.33621745052109        3.21713341378755
H            1.47867011623230        5.11175266209362        2.48343284024738
5
 energy: -13.583203084318 gnorm: 0.003638522026 xtb: 6.6.1 (8d0f1dd)
O            0.06956137165126        4.68348887630839        1.49973071781572
Cl          -1.14208880280315        5.51892904917774        0.96417656142411
H            1.66179295058243        5.03087226305414        4.02657539710748
O            2.07593920302752        5.34461361895298        3.21555168400638
H            1.47076946653779        5.11788840372531        2.48519091894830
5
 energy: -13.582758413749 gnorm: 0.033330442190 xtb: 6.6.1 (8d0f1dd)
O            0.01232735310402        4.64666801505463        1.59673847562256
Cl          -1.08683485158701        5.53003303332629        0.87197714736157
H            1.75256228344357        4.93243027008103        4.01674432401058
O            2.04865042959195        5.41028528944296        3.20498200868254
H            1.40926897444325        5.17637560331358        2.50078332362469
5
 energy: -13.583312140840 gnorm: 0.002593879833 xtb: 6.6.1 (8d0f1dd)
O            0.05208621210194        4.67362287318897        1.52807843538650
Cl          -1.12470344576453        5.52089610317929        0.93611490863126
H            1.69117982078399        5.00218089135697        4.02245202284048
O            2.06759627885951        5.36212695860798        3.21320314447132
H            1.44981532301492        5.13696538488534        2.49137676797241
5
 energy: -13.583348384803 gnorm: 0.003085341305 xtb: 6.6.1 (8d0f1dd)
O            0.04545733879654        4.67046643612641        1.53720595725654
Cl          -1.11867334186066        5.52162174502538        0.92623942137709
H            1.70200333066135        4.99186251558910        4.02070717869140
O            2.06448978212668        5.36949767644332        3.21268351985426
H            1.44269707927192        5.14234383803432        2.49438920212266
5
 energy: -13.582883429334 gnorm: 0.033049209380 xtb: 6.6.1 (8d0f1dd)
O           -0.01794278803220        4.64341682507100        1.62694582744156
Cl          -1.06545646472305        5.52591174310498        0.82806687948776
H            1.80579194380914        4.89648765827336        4.00514948315080
O            2.03658104273432        5.43165022561394        3.20858303562941
H            1.37700045520754        5.19832575915519        2.52248005359240
5
 energy: -13.583446371150 gnorm: 0.002364198211 xtb: 6.6.1 (8d0f1dd)
O            0.02646619254713        4.66442063876409        1.56175505556431
Cl          -1.10347959981112        5.52128907753654        0.89652984442348
H            1.73501693026702        4.96525209279948        4.01563967176738
O            2.05669092449557        5.38548351118554        3.21229675387068
H            1.42127974149719        5.15934689093286        2.50500395367611
5
 energy: -13.583477690742 gnorm: 0.002852053095 xtb: 6.6.1 (8d0f1dd)
O            0.01992245624197        4.66290186615615        1.56960531963946
Cl          -1.09822269062589        5.52113179046828        0.88678151393541
H            1.74632810627768        4.95615823937869        4.01349450634503
O            2.05357497426930        5.39200040126096        3.21226345355456
H            1.41437134283273        5.16359991395444        2.50908048582750
5
 energy: -13.583535751725 gnorm: 0.003188855620 xtb: 6.6.1 (8d0f1dd)
O            0.00855569344035        4.65724761057558        1.57719642075707
Cl          -1.08778303545512        5.52883089062050        0.87568435927464
H            1.77050968420451        4.94515979114712        4.01063008004782
O            2.03577412530575        5.41617577679967        3.21423156531753
H            1.40891772150029        5.14837814207570        2.51348285390489
5
 energy: -13.583606929198 gnorm: 0.003866620030 xtb: 6.6.1 (8d0f1dd)
O           -0.00484224082749        4.64464496959757        1.58682826281667
Cl          -1.07136197736879        5.53510511600980        0.86097554030154
H            1.79822782791667        4.93247776807913        4.00650374951418
O            2.02616596763347        5.42718274044247        3.21225100091654
H            1.38778461164191        5.15638161708962        2.52466672575304
5
 energy: -13.583646018969 gnorm: 0.012912048051 xtb: 6.6.1 (8d0f1dd)
O           -0.03651925319254        4.61633381477354        1.61260560900639
Cl          -1.02938464915682        5.54862249909930        0.82401031324536
H            1.86795484589641        4.90141220388483        3.99441667138519
O            2.00249724760280        5.45189517285048        3.20754799697375
H            1.33142599784591        5.17752852061050        2.55264468869131
5
 energy: -13.583699764725 gnorm: 0.003462504372 xtb: 6.6.1 (8d0f1dd)
O           -0.02554004677634        4.62427489633016        1.60479748338632
Cl          -1.03897271488081        5.54245186632107        0.83474854233617
H            1.84878652379731        4.91259804696508        3.99470074761970
O            2.01334226634231        5.43528689896260        3.20759091691045
H            1.33835816051329        5.18118050263971        2.54938758904936
5
 energy: -13.583735609925 gnorm: 0.002873134507 xtb: 6.6.1 (8d0f1dd)
O           -0.02927816984825        4.62436785919698        1.60937039746856
Cl          -1.03288596157585        5.54426558843411        0.82943604044219
H            1.86091608181714        4.90789278897760        3.99198941567849
O            2.00510468798296        5.44451550431594        3.20762419563298
H            1.33211755061976        5.17475047029400        2.55280523007978
5
 energy: -13.583746909813 gnorm: 0.011435216742 xtb: 6.6.1 (8d0f1dd)
O           -0.04843085343943        4.61698197864586        1.63179296227908
Cl          -1.00218147694725        5.55032564670553        0.80333012842123
H            1.91315552304392        4.88627671699015        3.97751022125175
O            1.97938296440946        5.46948233144265        3.20631681087394
H            1.29404803192904        5.17272553743450        2.57227515647601
5
 energy: -13.583790851212 gnorm: 0.002751869199 xtb: 6.6.1 (8d0f1dd)
O           -0.03987755865345        4.62361947017458        1.62503297955205
Cl          -1.01432561662608        5.54574743047646        0.81398322649257
H            1.89051898851490        4.89499083953055        3.98077738161632
O            1.98923470149609        5.45881452456957        3.20755988165899
H            1.31042367426427        5.17261994646751        2.56387180998208
5
 energy: -13.583812896895 gnorm: 0.002337069242 xtb: 6.6.1 (8d0f1dd)
O           -0.04611622274821        4.62255957783173        1.63376910787952
Cl          -1.00562783633638        5.54533954908386        0.80555345168910
H            1.90304096325194        4.88814944798015        3.97485888677065
O            1.98445614034600        5.46243255107920        3.20786474296157
H            1.30022114448239        5.17731108524373        2.56917909000117
5
 energy: -13.583824935993 gnorm: 0.011269920038 xtb: 6.6.1 (8d0f1dd)
O           -0.08178592129870        4.61941837484141        1.67944101737775
Cl          -0.96079104905616        5.54313996745722        0.75891255089195
H            1.97235253701769        4.85124573921845        3.94276852656279
O            1.95655522985325        5.48665514762781        3.21189489338114
H            1.24964339247964        5.19533298207382        2.59820829108842
5
 energy: -13.583873253230 gnorm: 0.001089219675 xtb: 6.6.1 (8d0f1dd)
O           -0.06801184226104        4.62380460435457        1.66088672412464
Cl          -0.98060821937821        5.54154455321033        0.77742634763826
H            1.94221742117525        4.86696170214225        3.95431445358200
O            1.96985684313586        5.47444960625287        3.21195534371897
H            1.27251998632386        5.18903174525867        2.58664241023817
5
 energy: -13.583903306355 gnorm: 0.001910923302 xtb: 6.6.1 (8d0f1dd)
O           -0.08355151771944        4.62474066828826        1.67736144195654
Cl          -0.96542966620301        5.53908419965205        0.75819252064791
H            1.96858286853323        4.85321554765185        3.94145114900141
O            1.96074132829963        5.48280809095866        3.21531276490969
H            1.25563117608529        5.19594370466789        2.59890740278651
5
 energy: -13.583824215033 gnorm: 0.014738978830 xtb: 6.6.1 (8d0f1dd)
O           -0.12773154901934        4.63118897851093        1.72085665197452
Cl          -0.92548388970855        5.52988969982167        0.70380065870834
H            2.04231678198975        4.81669793263903        3.90456209764777
O            1.93687778614633        5.50419231803022        3.22639013690567
H            1.20999505958750        5.21382328221688        2.63561573406580
5
 energy: -13.583934565769 gnorm: 0.003865950883 xtb: 6.6.1 (8d0f1dd)
O           -0.10871845837482        4.62942402575842        1.69978319634031
Cl          -0.94520877514133        5.53306682005553        0.72794788700232
H            2.00836334034480        4.83388936416980        3.92137799826786
O            1.94919941208125        5.49339825617136        3.22236298792608
H            1.23233867008580        5.20601374506361        2.61975320976552
5
 energy: -13.583944773167 gnorm: 0.002009974269 xtb: 6.6.1 (8d0f1dd)
O           -0.11155632086934        4.63124789967811        1.70141438482355
Cl          -0.94432347667287        5.53146704671873        0.72482739182322
H            2.01134708814306        4.83248589641390        3.91902512906662
O            1.94908628320772        5.49352693337134        3.22369941104149
H            1.23142061518713        5.20706443503664        2.62225896254721
5
 energy: -13.583957909114 gnorm: 0.000601623649 xtb: 6.6.1 (8d0f1dd)
O           -0.12124793188616        4.63590159924662        1.70845272907533
Cl          -0.93873277104619        5.52714160751208        0.71317940309653
H            2.02493263020243        4.82641956187413        3.91081275391172
O            1.94687737001356        5.49534753623842        3.22713233819183
H            1.22414489171206        5.21098190634748        2.63164805502669
5
 energy: -13.583977185241 gnorm: 0.001292635760 xtb: 6.6.1 (8d0f1dd)
O           -0.14609437019636        4.64651087877013        1.73057844693771
Cl          -0.92091359174558        5.51693300206275        0.68264781947561
H            2.06130231309729        4.80847646048068        3.88804390387648
O            1.93864985033960        5.50236889979890        3.23505182735795
H            1.20302998750073        5.22150297010625        2.65490328165437
5
 energy: -13.583978071484 gnorm: 0.003657988452 xtb: 6.6.1 (8d0f1dd)
O           -0.16112989778623        4.65375994402622        1.74433112020132
Cl          -0.90647919739909        5.51048976324651        0.66420905346708
H            2.08696353307533        4.79768295972252        3.87128068573752
O            1.93156262999729        5.50745220560729        3.23934313317118
H            1.18505712110838        5.22640733861618        2.67206128672503
5
 energy: -13.583984959483 gnorm: 0.001576024827 xtb: 6.6.1 (8d0f1dd)
O           -0.15876538128877        4.65324826073692        1.74406417244801
Cl          -0.90705852918126        5.51065415447525        0.66722638193029
H            2.08218978228212        4.79871162425226        3.87174017402146
O            1.93273437654294        5.50623964060404        3.23843144508961
H            1.18687394064065        5.22693853115025        2.66976310581276
5
 energy: -13.583988511430 gnorm: 0.001665387112 xtb: 6.6.1 (8d0f1dd)
O           -0.16479985655164        4.65648784331744        1.75578964001560
Cl          -0.89766667549303        5.50612967935525        0.66094808807135
H            2.08690869544861        4.79198877353327        3.85998169367587
O            1.93105098440465        5.50686058375926        3.23972583714162
H            1.18048104118707        5.23432533125349        2.67478002039771
5
 energy: -13.583989936786 gnorm: 0.001098635999 xtb: 6.6.1 (8d0f1dd)
O           -0.16748061234268        4.65730856098394        1.75855614309438
Cl          -0.89048381708296        5.50542872490962        0.65966724212910
H            2.09308159748757        4.79029682483680        3.85319351160026
O            1.92705767806939        5.50946170865633        3.24009695404197
H            1.17379934286434        5.23329639183203        2.67971142843644
5
 energy: -13.583991201013 gnorm: 0.001295660261 xtb: 6.6.1 (8d0f1dd)
O           -0.17699761888050        4.66031364440470        1.76761387417108
Cl          -0.88091798966299        5.50142511291416        0.64896893113225
H            2.10700369488607        4.78331702253946        3.84273648437963
O            1.92411524251550        5.51114056975063        3.24247365958477
H            1.16277086013758        5.23959586160977        2.68943233003444
5
 energy: -13.583992418357 gnorm: 0.000515423706 xtb: 6.6.1 (8d0f1dd)
O           -0.17440051625888        4.65946049760421        1.76588091724671
Cl          -0.88440110342044        5.50239932858906        0.65245605612439
H            2.10064610790393        4.78493460395817        3.84584380188248
O            1.92536226656868        5.51079503475266        3.24221849217779
H            1.16876743420237        5.23820274631462        2.68482601187080
