 Entering Gaussian System, Link 0=g16
 Input=ts.gjf
 Output=ts.log
 Initial command:
 /share/apps/g16.a03/g16/l1.exe "/tmp/Gau-7892.inp" -scrdir="/tmp/"
 Entering Link 1 = /share/apps/g16.a03/g16/l1.exe PID=      7894.
  
 Copyright (c) 1988,1990,1992,1993,1995,1998,2003,2009,2016,
            Gaussian, Inc.  All Rights Reserved.
  
 This is part of the Gaussian(R) 16 program.  It is based on
 the Gaussian(R) 09 system (copyright 2009, Gaussian, Inc.),
 the Gaussian(R) 03 system (copyright 2003, Gaussian, Inc.),
 the Gaussian(R) 98 system (copyright 1998, Gaussian, Inc.),
 the Gaussian(R) 94 system (copyright 1995, Gaussian, Inc.),
 the Gaussian 92(TM) system (copyright 1992, Gaussian, Inc.),
 the Gaussian 90(TM) system (copyright 1990, Gaussian, Inc.),
 the Gaussian 88(TM) system (copyright 1988, Gaussian, Inc.),
 the Gaussian 86(TM) system (copyright 1986, Carnegie Mellon
 University), and the Gaussian 82(TM) system (copyright 1983,
 Carnegie Mellon University). Gaussian is a federally registered
 trademark of Gaussian, Inc.
  
 This software contains proprietary and confidential information,
 including trade secrets, belonging to Gaussian, Inc.
  
 This software is provided under written license and may be
 used, copied, transmitted, or stored only in accord with that
 written license.
  
 The following legend is applicable only to US Government
 contracts under FAR:
  
                    RESTRICTED RIGHTS LEGEND
  
 Use, reproduction and disclosure by the US Government is
 subject to restrictions as set forth in subparagraphs (a)
 and (c) of the Commercial Computer Software - Restricted
 Rights clause in FAR 52.227-19.
  
 Gaussian, Inc.
 340 Quinnipiac St., Bldg. 40, Wallingford CT 06492
  
  
 ---------------------------------------------------------------
 Warning -- This program may not be used in any manner that
 competes with the business of Gaussian, Inc. or will provide
 assistance to any competitor of Gaussian, Inc.  The licensee
 of this program is prohibited from giving any competitor of
 Gaussian, Inc. access to this program.  By using this program,
 the user acknowledges that Gaussian, Inc. is engaged in the
 business of creating and licensing software in the field of
 computational chemistry and represents and warrants to the
 licensee that it is not a competitor of Gaussian, Inc. and that
 it will not use this program in any manner prohibited above.
 ---------------------------------------------------------------
  

 Cite this work as:
 Gaussian 16, Revision A.03,
 M. J. Frisch, G. W. Trucks, H. B. Schlegel, G. E. Scuseria, 
 M. A. Robb, J. R. Cheeseman, G. Scalmani, V. Barone, 
 G. A. Petersson, H. Nakatsuji, X. Li, M. Caricato, A. V. Marenich, 
 J. Bloino, B. G. Janesko, R. Gomperts, B. Mennucci, H. P. Hratchian, 
 J. V. Ortiz, A. F. Izmaylov, J. L. Sonnenberg, D. Williams-Young, 
 F. Ding, F. Lipparini, F. Egidi, J. Goings, B. Peng, A. Petrone, 
 T. Henderson, D. Ranasinghe, V. G. Zakrzewski, J. Gao, N. Rega, 
 G. Zheng, W. Liang, M. Hada, M. Ehara, K. Toyota, R. Fukuda, 
 J. Hasegawa, M. Ishida, T. Nakajima, Y. Honda, O. Kitao, H. Nakai, 
 T. Vreven, K. Throssell, J. A. Montgomery, Jr., J. E. Peralta, 
 F. Ogliaro, M. J. Bearpark, J. J. Heyd, E. N. Brothers, K. N. Kudin, 
 V. N. Staroverov, T. A. Keith, R. Kobayashi, J. Normand, 
 K. Raghavachari, A. P. Rendell, J. C. Burant, S. S. Iyengar, 
 J. Tomasi, M. Cossi, J. M. Millam, M. Klene, C. Adamo, R. Cammi, 
 J. W. Ochterski, R. L. Martin, K. Morokuma, O. Farkas, 
 J. B. Foresman, and D. J. Fox, Gaussian, Inc., Wallingford CT, 2016.
 
 ******************************************
 Gaussian 16:  EM64L-G16RevA.03 25-Dec-2016
                 6-Mar-2025 
 ******************************************
 %nproc=8
 Will use up to    8 processors via shared memory.
 %mem=4000MB
 --------------------------------------------------------------------
 #opt=(noeigen,calcfc,ts,recalc=5,maxcyc=200) freq B3LYP/SVP em=GD3BJ
 --------------------------------------------------------------------
 1/5=1,6=200,10=4,11=1,18=20,26=3,38=1,71=5/1,3;
 2/9=110,12=2,17=6,18=5,40=1/2;
 3/5=18,7=101,11=2,25=1,30=1,71=2,74=-5,124=41,140=1/1,2,3;
 4//1;
 5/5=2,38=5/2;
 8/6=4,10=90,11=11/1;
 11/6=1,8=1,9=11,15=111,16=1/1,2,10;
 10/6=1,13=1/2;
 6/7=2,8=2,9=2,10=2,28=1/1;
 7/10=1,18=20,25=1/1,2,3,16;
 1/5=1,6=200,10=4,11=1,18=20,26=3,71=5/3(2);
 2/9=110/2;
 99//99;
 2/9=110/2;
 3/5=18,7=101,11=2,25=1,30=1,71=1,74=-5,124=41/1,2,3;
 4/5=5,16=3,69=1/1;
 5/5=2,38=5/2;
 7//1,2,3,16;
 1/5=1,6=200,11=1,18=20,26=3,71=5/3(-5);
 2/9=110/2;
 6/7=2,8=2,9=2,10=2,19=2,28=1/1;
 99/9=1/99;
 ----------
 ts-490.gjf
 ----------
 Symbolic Z-matrix:
 Charge =  0 Multiplicity = 1
 O                    -1.65531   0.65391  -1.78568 
 Cl                   -2.37685   1.42438  -0.0209 
 H                    -2.4309    0.53377  -2.38594 
 
 Add virtual bond connecting atoms Cl2        and O1         Dist= 3.89D+00.

 GradGradGradGradGradGradGradGradGradGradGradGradGradGradGradGradGradGrad
 Berny optimization.
 Initialization pass.
                           ----------------------------
                           !    Initial Parameters    !
                           ! (Angstroms and Degrees)  !
 --------------------------                            --------------------------
 ! Name  Definition              Value          Derivative Info.                !
 --------------------------------------------------------------------------------
 ! R1    R(1,2)                  2.0564         calculate D2E/DX2 analytically  !
 ! R2    R(1,3)                  0.9881         calculate D2E/DX2 analytically  !
 ! A1    A(2,1,3)              106.9476         calculate D2E/DX2 analytically  !
 --------------------------------------------------------------------------------
 Trust Radius=3.00D-01 FncErr=1.00D-07 GrdErr=1.00D-06 EigMax=2.50D+02 EigMin=1.00D-04
 Number of steps in this run=    100 maximum allowed number of steps=    100.
 Search for a saddle point of order  1.
 GradGradGradGradGradGradGradGradGradGradGradGradGradGradGradGradGradGrad

                          Input orientation:                          
 ---------------------------------------------------------------------
 Center     Atomic      Atomic             Coordinates (Angstroms)
 Number     Number       Type             X           Y           Z
 ---------------------------------------------------------------------
      1          8           0       -1.655314    0.653905   -1.785682
      2         17           0       -2.376853    1.424379   -0.020895
      3          1           0       -2.430901    0.533767   -2.385942
 ---------------------------------------------------------------------
                    Distance matrix (angstroms):
                    1          2          3
     1  O    0.000000
     2  Cl   2.056385   0.000000
     3  H    0.988069   2.527757   0.000000
 Stoichiometry    ClHO
 Framework group  CS[SG(ClHO)]
 Deg. of freedom     3
 Full point group                 CS      NOp   2
 Largest Abelian subgroup         CS      NOp   2
 Largest concise Abelian subgroup C1      NOp   1
                         Standard orientation:                         
 ---------------------------------------------------------------------
 Center     Atomic      Atomic             Coordinates (Angstroms)
 Number     Number       Type             X           Y           Z
 ---------------------------------------------------------------------
      1          8           0        0.036352    1.333482   -0.000000
      2         17           0        0.036352   -0.722903    0.000000
      3          1           0       -0.908807    1.621501   -0.000000
 ---------------------------------------------------------------------
 Rotational constants (GHZ):         608.2647893          10.2480348          10.0782369
 Standard basis: SVP (5D, 7F)
 There are    29 symmetry adapted cartesian basis functions of A'  symmetry.
 There are    10 symmetry adapted cartesian basis functions of A"  symmetry.
 There are    27 symmetry adapted basis functions of A'  symmetry.
 There are    10 symmetry adapted basis functions of A"  symmetry.
    37 basis functions,    69 primitive gaussians,    39 cartesian basis functions
    13 alpha electrons       13 beta electrons
       nuclear repulsion energy        42.8408098158 Hartrees.
 NAtoms=    3 NActive=    3 NUniq=    3 SFac= 1.00D+00 NAtFMM=   60 NAOKFM=F Big=F
 Integral buffers will be    131072 words long.
 Raffenetti 2 integral format.
 Two-electron integral symmetry is turned on.
 Nuclear repulsion after empirical dispersion term =       42.8392297364 Hartrees.
 One-electron integrals computed using PRISM.
 NBasis=    37 RedAO= T EigKep=  5.13D-02  NBF=    27    10
 NBsUse=    37 1.00D-06 EigRej= -1.00D+00 NBFU=    27    10
 ExpMin= 1.22D-01 ExpMax= 1.04D+04 ExpMxC= 1.57D+03 IAcc=3 IRadAn=         5 AccDes= 0.00D+00
 Harris functional with IExCor=  402 and IRadAn=       5 diagonalized for initial guess.
 HarFok:  IExCor=  402 AccDes= 0.00D+00 IRadAn=         5 IDoV= 1 UseB2=F ITyADJ=14
 ICtDFT=  3500011 ScaDFX=  1.000000  1.000000  1.000000  1.000000
 FoFCou: FMM=F IPFlag=           0 FMFlag=      100000 FMFlg1=           0
         NFxFlg=           0 DoJE=T BraDBF=F KetDBF=T FulRan=T
         wScrn=  0.000000 ICntrl=       500 IOpCl=  0 I1Cent=   200000004 NGrid=           0
         NMat0=    1 NMatS0=      1 NMatT0=    0 NMatD0=    1 NMtDS0=    0 NMtDT0=    0
 Petite list used in FoFCou.
 Initial guess orbital symmetries:
       Occupied  (A') (A') (A') (A') (A') (A") (A') (A') (A') (A')
                 (A") (A') (A")
       Virtual   (A') (A') (A') (A') (A') (A') (A") (A') (A") (A')
                 (A") (A') (A") (A') (A') (A') (A") (A') (A') (A")
                 (A') (A") (A') (A')
 The electronic state of the initial guess is 1-A'.
 Keep R1 ints in memory in symmetry-blocked form, NReq=7153137.
 Requested convergence on RMS density matrix=1.00D-08 within 128 cycles.
 Requested convergence on MAX density matrix=1.00D-06.
 Requested convergence on             energy=1.00D-06.
 No special actions if energy rises.
 Integral accuracy reduced to 1.0D-05 until final iterations.
 Initial convergence to 1.0D-05 achieved.  Increase integral accuracy.
 SCF Done:  E(RB3LYP) =  -535.730825912     A.U. after   12 cycles
            NFock= 12  Conv=0.85D-08     -V/T= 2.0032
 DoSCS=F DFT=T ScalE2(SS,OS)=  1.000000  1.000000
 Range of M.O.s used for correlation:     1    37
 NBasis=    37 NAE=    13 NBE=    13 NFC=     0 NFV=     0
 NROrb=     37 NOA=    13 NOB=    13 NVA=    24 NVB=    24
 Symmetrizing basis deriv contribution to polar:
 IMax=3 JMax=2 DiffMx= 0.00D+00
 G2DrvN: will do     4 centers at a time, making    1 passes.
 Calling FoFCou, ICntrl=  3107 FMM=F I1Cent=   0 AccDes= 0.00D+00.
 End of G2Drv F.D. properties file   721 does not exist.
 End of G2Drv F.D. properties file   722 does not exist.
 End of G2Drv F.D. properties file   788 does not exist.
          IDoAtm=111
          Differentiating once with respect to nuclear coordinates.
 Keep R1 ints in memory in symmetry-blocked form, NReq=7127942.
          There are    12 degrees of freedom in the 1st order CPHF.  IDoFFX=6 NUNeed=     0.
      6 vectors produced by pass  0 Test12= 2.60D-15 8.33D-09 XBig12= 7.17D-02 1.84D-01.
 AX will form     6 AO Fock derivatives at one time.
      6 vectors produced by pass  1 Test12= 2.60D-15 8.33D-09 XBig12= 6.25D-02 1.22D-01.
      6 vectors produced by pass  2 Test12= 2.60D-15 8.33D-09 XBig12= 8.70D-04 1.30D-02.
      6 vectors produced by pass  3 Test12= 2.60D-15 8.33D-09 XBig12= 4.36D-05 2.40D-03.
      6 vectors produced by pass  4 Test12= 2.60D-15 8.33D-09 XBig12= 8.10D-07 2.69D-04.
      6 vectors produced by pass  5 Test12= 2.60D-15 8.33D-09 XBig12= 2.67D-09 1.60D-05.
      3 vectors produced by pass  6 Test12= 2.60D-15 8.33D-09 XBig12= 2.40D-12 5.06D-07.
      1 vectors produced by pass  7 Test12= 2.60D-15 8.33D-09 XBig12= 1.49D-15 1.24D-08.
 InvSVY:  IOpt=1 It=  1 EMax= 2.25D-16
 Solved reduced A of dimension    40 with     6 vectors.
 End of Minotr F.D. properties file   721 does not exist.
 End of Minotr F.D. properties file   722 does not exist.
 End of Minotr F.D. properties file   788 does not exist.

 **********************************************************************

            Population analysis using the SCF density.

 **********************************************************************

 Orbital symmetries:
       Occupied  (A') (A') (A') (A') (A') (A") (A') (A') (A') (A')
                 (A") (A') (A")
       Virtual   (A') (A') (A') (A') (A') (A') (A") (A') (A") (A')
                 (A") (A') (A') (A") (A') (A') (A") (A') (A') (A")
                 (A') (A') (A") (A')
 The electronic state is 1-A'.
 Alpha  occ. eigenvalues -- -101.54738 -19.21354  -9.49574  -7.26935  -7.25316
 Alpha  occ. eigenvalues --   -7.25297  -0.98834  -0.80287  -0.48814  -0.39919
 Alpha  occ. eigenvalues --   -0.36267  -0.32585  -0.30450
 Alpha virt. eigenvalues --   -0.16896   0.05120   0.46143   0.54689   0.67786
 Alpha virt. eigenvalues --    0.70611   0.70689   0.76583   0.76603   0.83318
 Alpha virt. eigenvalues --    0.83634   0.92445   0.97413   0.97549   1.06218
 Alpha virt. eigenvalues --    1.26078   1.40860   1.56776   2.12000   2.59154
 Alpha virt. eigenvalues --    2.67894   2.89307   2.91467   3.62437
          Condensed to atoms (all electrons):
               1          2          3
     1  O    7.819854   0.149638   0.282037
     2  Cl   0.149638  16.817814  -0.005913
     3  H    0.282037  -0.005913   0.510807
 Mulliken charges:
               1
     1  O   -0.251529
     2  Cl   0.038460
     3  H    0.213069
 Sum of Mulliken charges =   0.00000
 Mulliken charges with hydrogens summed into heavy atoms:
               1
     1  O   -0.038460
     2  Cl   0.038460
 APT charges:
               1
     1  O   -0.529086
     2  Cl   0.043450
     3  H    0.485636
 Sum of APT charges =   0.00000
 APT charges with hydrogens summed into heavy atoms:
               1
     1  O   -0.043450
     2  Cl   0.043450
 Electronic spatial extent (au):  <R**2>=            132.5168
 Charge=              0.0000 electrons
 Dipole moment (field-independent basis, Debye):
    X=             -1.6445    Y=              0.2622    Z=             -0.0000  Tot=              1.6653
 Quadrupole moment (field-independent basis, Debye-Ang):
   XX=            -16.7886   YY=            -14.9008   ZZ=            -18.7963
   XY=             -2.9887   XZ=             -0.0000   YZ=             -0.0000
 Traceless Quadrupole moment (field-independent basis, Debye-Ang):
   XX=              0.0399   YY=              1.9278   ZZ=             -1.9677
   XY=             -2.9887   XZ=             -0.0000   YZ=             -0.0000
 Octapole moment (field-independent basis, Debye-Ang**2):
  XXX=             -2.0362  YYY=              3.5889  ZZZ=             -0.0000  XYY=             -4.7648
  XXY=              3.6533  XXZ=             -0.0000  XZZ=             -0.2250  YZZ=              0.5333
  YYZ=             -0.0000  XYZ=              0.0000
 Hexadecapole moment (field-independent basis, Debye-Ang**3):
 XXXX=            -17.2267 YYYY=            -99.0998 ZZZZ=            -16.8461 XXXY=             -0.3375
 XXXZ=             -0.0000 YYYX=             -5.9689 YYYZ=             -0.0000 ZZZX=             -0.0000
 ZZZY=              0.0000 XXYY=            -18.5534 XXZZ=             -5.9547 YYZZ=            -23.2044
 XXYZ=             -0.0000 YYXZ=             -0.0000 ZZXY=              0.6681
 N-N= 4.283922973645D+01 E-N=-1.358460850137D+03  KE= 5.340253511830D+02
 Symmetry A'   KE= 4.832826937532D+02
 Symmetry A"   KE= 5.074265742989D+01
  Exact polarizability:   0.000   0.000   0.000   0.000   0.000   0.000
 Approx polarizability:  14.419  -1.785  72.505   0.000  -0.000   9.713
 Calling FoFJK, ICntrl=    100147 FMM=F ISym2X=1 I1Cent= 0 IOpClX= 0 NMat=1 NMatS=1 NMatT=0.
 ***** Axes restored to original set *****
 -------------------------------------------------------------------
 Center     Atomic                   Forces (Hartrees/Bohr)
 Number     Number              X              Y              Z
 -------------------------------------------------------------------
      1        8          -0.013812796    0.018107493    0.042626711
      2       17           0.016136684   -0.024633028   -0.058959877
      3        1          -0.002323888    0.006525534    0.016333166
 -------------------------------------------------------------------
 Cartesian Forces:  Max     0.058959877 RMS     0.027876538
 FormGI is forming the generalized inverse of G from B-inverse, IUseBI=4.

 GradGradGradGradGradGradGradGradGradGradGradGradGradGradGradGradGradGrad
 Berny optimization.
 Internal  Forces:  Max     0.065490740 RMS     0.041592604
 Search for a saddle point.
 Step number   1 out of a maximum of  100
 All quantities printed in internal units (Hartrees-Bohrs-Radians)
 Swapping is turned off.
 Second derivative matrix not updated -- analytic derivatives used.
 The second derivative matrix:
                          R1        R2        A1
           R1           0.02234
           R2          -0.00592   0.46193
           A1           0.00458  -0.00358   0.12181
 ITU=  0
     Eigenvalues ---    0.02206   0.12198   0.46205
 Eigenvectors required to have negative eigenvalues:
                          R1        A1        R2
   1                   -0.99888   0.04537  -0.01308
 RFO step:  Lambda0=7.620295719D-02 Lambda=-7.86404098D-03.
 Linear search not attempted -- option 19 set.
 Maximum step size (   0.300) exceeded in Quadratic search.
    -- Step size scaled by   0.867
 Iteration  1 RMS(Cart)=  0.13556387 RMS(Int)=  0.02014812
 Iteration  2 RMS(Cart)=  0.02360656 RMS(Int)=  0.00031328
 Iteration  3 RMS(Cart)=  0.00026163 RMS(Int)=  0.00000004
 Iteration  4 RMS(Cart)=  0.00000005 RMS(Int)=  0.00000000
 ClnCor:  largest displacement from symmetrization is 1.90D-15 for atom     3.
 Variable       Old X    -DE/DX   Delta X   Delta X   Delta X     New X
                                 (Linear)    (Quad)   (Total)
    R1        3.88600  -0.06549   0.00000   0.20252   0.20252   4.08852
    R2        1.86718  -0.00889   0.00000  -0.01381  -0.01381   1.85337
    A1        1.86659  -0.02867   0.00000  -0.22090  -0.22090   1.64569
         Item               Value     Threshold  Converged?
 Maximum Force            0.065491     0.000450     NO 
 RMS     Force            0.041593     0.000300     NO 
 Maximum Displacement     0.142187     0.001800     NO 
 RMS     Displacement     0.151768     0.001200     NO 
 Predicted change in Energy= 1.008287D-02
 GradGradGradGradGradGradGradGradGradGradGradGradGradGradGradGradGradGrad

                          Input orientation:                          
 ---------------------------------------------------------------------
 Center     Atomic      Atomic             Coordinates (Angstroms)
 Number     Number       Type             X           Y           Z
 ---------------------------------------------------------------------
      1          8           0       -1.589754    0.618464   -1.855013
      2         17           0       -2.416680    1.427670   -0.026807
      3          1           0       -2.456634    0.565918   -2.310700
 ---------------------------------------------------------------------
                    Distance matrix (angstroms):
                    1          2          3
     1  O    0.000000
     2  Cl   2.163552   0.000000
     3  H    0.980761   2.441389   0.000000
 Stoichiometry    ClHO
 Framework group  CS[SG(ClHO)]
 Deg. of freedom     3
 Full point group                 CS      NOp   2
 Largest Abelian subgroup         CS      NOp   2
 Largest concise Abelian subgroup C1      NOp   1
                         Standard orientation:                         
 ---------------------------------------------------------------------
 Center     Atomic      Atomic             Coordinates (Angstroms)
 Number     Number       Type             X           Y           Z
 ---------------------------------------------------------------------
      1          8           0        0.037616    1.411808    0.000000
      2         17           0        0.037616   -0.751744    0.000000
      3          1           0       -0.940396    1.485190    0.000000
 ---------------------------------------------------------------------
 Rotational constants (GHZ):         560.0314014           9.3910969           9.2362159
 Standard basis: SVP (5D, 7F)
 There are    29 symmetry adapted cartesian basis functions of A'  symmetry.
 There are    10 symmetry adapted cartesian basis functions of A"  symmetry.
 There are    27 symmetry adapted basis functions of A'  symmetry.
 There are    10 symmetry adapted basis functions of A"  symmetry.
    37 basis functions,    69 primitive gaussians,    39 cartesian basis functions
    13 alpha electrons       13 beta electrons
       nuclear repulsion energy        41.2651183107 Hartrees.
 NAtoms=    3 NActive=    3 NUniq=    3 SFac= 1.00D+00 NAtFMM=   60 NAOKFM=F Big=F
 Integral buffers will be    131072 words long.
 Raffenetti 2 integral format.
 Two-electron integral symmetry is turned on.
 Nuclear repulsion after empirical dispersion term =       41.2634853460 Hartrees.
 One-electron integrals computed using PRISM.
 NBasis=    37 RedAO= T EigKep=  5.16D-02  NBF=    27    10
 NBsUse=    37 1.00D-06 EigRej= -1.00D+00 NBFU=    27    10
 Initial guess from the checkpoint file:  "/tmp/Gau-7894.chk"
 B after Tr=    -0.000000   -0.000000   -0.000000
         Rot=    0.999995    0.000000   -0.000000   -0.003299 Ang=  -0.38 deg.
 Initial guess orbital symmetries:
       Occupied  (A') (A') (A') (A') (A') (A") (A') (A') (A') (A')
                 (A") (A') (A")
       Virtual   (A') (A') (A') (A') (A') (A') (A") (A') (A") (A')
                 (A") (A') (A') (A") (A') (A') (A") (A') (A') (A")
                 (A') (A') (A") (A')
 ExpMin= 1.22D-01 ExpMax= 1.04D+04 ExpMxC= 1.57D+03 IAcc=2 IRadAn=         4 AccDes= 0.00D+00
 Harris functional with IExCor=  402 and IRadAn=       4 diagonalized for initial guess.
 HarFok:  IExCor=  402 AccDes= 0.00D+00 IRadAn=         4 IDoV= 1 UseB2=F ITyADJ=14
 ICtDFT=  3500011 ScaDFX=  1.000000  1.000000  1.000000  1.000000
 FoFCou: FMM=F IPFlag=           0 FMFlag=      100000 FMFlg1=           0
         NFxFlg=           0 DoJE=T BraDBF=F KetDBF=T FulRan=T
         wScrn=  0.000000 ICntrl=       500 IOpCl=  0 I1Cent=   200000004 NGrid=           0
         NMat0=    1 NMatS0=      1 NMatT0=    0 NMatD0=    1 NMtDS0=    0 NMtDT0=    0
 Petite list used in FoFCou.
 Keep R1 ints in memory in symmetry-blocked form, NReq=7153137.
 Requested convergence on RMS density matrix=1.00D-08 within 128 cycles.
 Requested convergence on MAX density matrix=1.00D-06.
 Requested convergence on             energy=1.00D-06.
 No special actions if energy rises.
 Integral accuracy reduced to 1.0D-05 until final iterations.
 Initial convergence to 1.0D-05 achieved.  Increase integral accuracy.
 SCF Done:  E(RB3LYP) =  -535.721040348     A.U. after   14 cycles
            NFock= 14  Conv=0.42D-08     -V/T= 2.0032
 Calling FoFJK, ICntrl=      2127 FMM=F ISym2X=1 I1Cent= 0 IOpClX= 0 NMat=1 NMatS=1 NMatT=0.
 ***** Axes restored to original set *****
 -------------------------------------------------------------------
 Center     Atomic                   Forces (Hartrees/Bohr)
 Number     Number              X              Y              Z
 -------------------------------------------------------------------
      1        8          -0.025007552    0.023903030    0.053790435
      2       17           0.024413806   -0.024884472   -0.056592223
      3        1           0.000593746    0.000981443    0.002801789
 -------------------------------------------------------------------
 Cartesian Forces:  Max     0.056592223 RMS     0.030763000

 GradGradGradGradGradGradGradGradGradGradGradGradGradGradGradGradGradGrad
 Berny optimization.
 FormGI is forming the generalized inverse of G from B-inverse, IUseBI=4.
 Internal  Forces:  Max     0.066459439 RMS     0.038469716
 Search for a saddle point.
 Step number   2 out of a maximum of  100
 All quantities printed in internal units (Hartrees-Bohrs-Radians)
 Swapping is turned off.
 Update second derivatives using D2CorX and points    1    2
 The second derivative matrix:
                          R1        R2        A1
           R1           0.01469
           R2          -0.00656   0.46189
           A1           0.00949  -0.00314   0.11874
 ITU=  0  0
     Eigenvalues ---    0.01374   0.11956   0.46201
 Eigenvectors required to have negative eigenvalues:
                          R1        A1        R2
   1                   -0.99588   0.08957  -0.01395
 RFO step:  Lambda0=7.304522481D-02 Lambda=-8.90449749D-04.
 Linear search not attempted -- option 19 set.
 Iteration  1 RMS(Cart)=  0.06478653 RMS(Int)=  0.00343834
 Iteration  2 RMS(Cart)=  0.00261861 RMS(Int)=  0.00000191
 Iteration  3 RMS(Cart)=  0.00000235 RMS(Int)=  0.00000000
 Iteration  4 RMS(Cart)=  0.00000000 RMS(Int)=  0.00000000
 ClnCor:  largest displacement from symmetrization is 9.93D-16 for atom     3.
 Variable       Old X    -DE/DX   Delta X   Delta X   Delta X     New X
                                 (Linear)    (Quad)   (Total)
    R1        4.08852  -0.06646   0.00000   0.07792   0.07792   4.16644
    R2        1.85337  -0.00188   0.00000  -0.00156  -0.00156   1.85181
    A1        1.64569  -0.00440   0.00000  -0.09324  -0.09324   1.55245
         Item               Value     Threshold  Converged?
 Maximum Force            0.066459     0.000450     NO 
 RMS     Force            0.038470     0.000300     NO 
 Maximum Displacement     0.068463     0.001800     NO 
 RMS     Displacement     0.065501     0.001200     NO 
 Predicted change in Energy= 5.257701D-03
 GradGradGradGradGradGradGradGradGradGradGradGradGradGradGradGradGradGrad

                          Input orientation:                          
 ---------------------------------------------------------------------
 Center     Atomic      Atomic             Coordinates (Angstroms)
 Number     Number       Type             X           Y           Z
 ---------------------------------------------------------------------
      1          8           0       -1.565549    0.603710   -1.885005
      2         17           0       -2.433049    1.427577   -0.033044
      3          1           0       -2.464470    0.580765   -2.274471
 ---------------------------------------------------------------------
                    Distance matrix (angstroms):
                    1          2          3
     1  O    0.000000
     2  Cl   2.204784   0.000000
     3  H    0.979934   2.396263   0.000000
 Stoichiometry    ClHO
 Framework group  CS[SG(ClHO)]
 Deg. of freedom     3
 Full point group                 CS      NOp   2
 Largest Abelian subgroup         CS      NOp   2
 Largest concise Abelian subgroup C1      NOp   1
                         Standard orientation:                         
 ---------------------------------------------------------------------
 Center     Atomic      Atomic             Coordinates (Angstroms)
 Number     Number       Type             X           Y           Z
 ---------------------------------------------------------------------
      1          8           0        0.037683    1.442281    0.000000
      2         17           0        0.037683   -0.762503   -0.000000
      3          1           0       -0.942086    1.424305    0.000000
 ---------------------------------------------------------------------
 Rotational constants (GHZ):         555.1413435           9.0901005           8.9436536
 Standard basis: SVP (5D, 7F)
 There are    29 symmetry adapted cartesian basis functions of A'  symmetry.
 There are    10 symmetry adapted cartesian basis functions of A"  symmetry.
 There are    27 symmetry adapted basis functions of A'  symmetry.
 There are    10 symmetry adapted basis functions of A"  symmetry.
    37 basis functions,    69 primitive gaussians,    39 cartesian basis functions
    13 alpha electrons       13 beta electrons
       nuclear repulsion energy        40.7160787417 Hartrees.
 NAtoms=    3 NActive=    3 NUniq=    3 SFac= 1.00D+00 NAtFMM=   60 NAOKFM=F Big=F
 Integral buffers will be    131072 words long.
 Raffenetti 2 integral format.
 Two-electron integral symmetry is turned on.
 Nuclear repulsion after empirical dispersion term =       40.7144231635 Hartrees.
 One-electron integrals computed using PRISM.
 NBasis=    37 RedAO= T EigKep=  5.20D-02  NBF=    27    10
 NBsUse=    37 1.00D-06 EigRej= -1.00D+00 NBFU=    27    10
 Initial guess from the checkpoint file:  "/tmp/Gau-7894.chk"
 B after Tr=     0.000000    0.000000    0.000000
         Rot=    0.999999   -0.000000    0.000000   -0.001069 Ang=  -0.12 deg.
 Initial guess orbital symmetries:
       Occupied  (A') (A') (A') (A') (A') (A") (A') (A') (A') (A')
                 (A") (A') (A")
       Virtual   (A') (A') (A') (A') (A') (A") (A') (A') (A") (A')
                 (A") (A') (A') (A") (A') (A') (A") (A') (A') (A")
                 (A') (A') (A") (A')
 ExpMin= 1.22D-01 ExpMax= 1.04D+04 ExpMxC= 1.57D+03 IAcc=2 IRadAn=         4 AccDes= 0.00D+00
 Harris functional with IExCor=  402 and IRadAn=       4 diagonalized for initial guess.
 HarFok:  IExCor=  402 AccDes= 0.00D+00 IRadAn=         4 IDoV= 1 UseB2=F ITyADJ=14
 ICtDFT=  3500011 ScaDFX=  1.000000  1.000000  1.000000  1.000000
 FoFCou: FMM=F IPFlag=           0 FMFlag=      100000 FMFlg1=           0
         NFxFlg=           0 DoJE=T BraDBF=F KetDBF=T FulRan=T
         wScrn=  0.000000 ICntrl=       500 IOpCl=  0 I1Cent=   200000004 NGrid=           0
         NMat0=    1 NMatS0=      1 NMatT0=    0 NMatD0=    1 NMtDS0=    0 NMtDT0=    0
 Petite list used in FoFCou.
 Keep R1 ints in memory in symmetry-blocked form, NReq=7153137.
 Requested convergence on RMS density matrix=1.00D-08 within 128 cycles.
 Requested convergence on MAX density matrix=1.00D-06.
 Requested convergence on             energy=1.00D-06.
 No special actions if energy rises.
 Integral accuracy reduced to 1.0D-05 until final iterations.
 Initial convergence to 1.0D-05 achieved.  Increase integral accuracy.
 SCF Done:  E(RB3LYP) =  -535.715876399     A.U. after   13 cycles
            NFock= 13  Conv=0.43D-08     -V/T= 2.0032
 Calling FoFJK, ICntrl=      2127 FMM=F ISym2X=1 I1Cent= 0 IOpClX= 0 NMat=1 NMatS=1 NMatT=0.
 ***** Axes restored to original set *****
 -------------------------------------------------------------------
 Center     Atomic                   Forces (Hartrees/Bohr)
 Number     Number              X              Y              Z
 -------------------------------------------------------------------
      1        8          -0.028554330    0.025356154    0.056318698
      2       17           0.026782049   -0.024407733   -0.054469937
      3        1           0.001772281   -0.000948421   -0.001848761
 -------------------------------------------------------------------
 Cartesian Forces:  Max     0.056318698 RMS     0.031477555

 GradGradGradGradGradGradGradGradGradGradGradGradGradGradGradGradGradGrad
 Berny optimization.
 FormGI is forming the generalized inverse of G from B-inverse, IUseBI=4.
 Internal  Forces:  Max     0.065412057 RMS     0.037870219
 Search for a saddle point.
 Step number   3 out of a maximum of  100
 All quantities printed in internal units (Hartrees-Bohrs-Radians)
 Swapping is turned off.
 Update second derivatives using D2CorX and points    1    2    3
 The second derivative matrix:
                          R1        R2        A1
           R1           0.00635
           R2          -0.00700   0.46186
           A1           0.01666  -0.00276   0.11258
 ITU=  0  0  0
     Eigenvalues ---    0.00371   0.11509   0.46200
 Eigenvectors required to have negative eigenvalues:
                          R1        A1        R2
   1                   -0.98845   0.15090  -0.01419
 RFO step:  Lambda0=6.727288050D-02 Lambda=-2.28491390D-04.
 Linear search not attempted -- option 19 set.
 Iteration  1 RMS(Cart)=  0.03589545 RMS(Int)=  0.00104080
 Iteration  2 RMS(Cart)=  0.00078424 RMS(Int)=  0.00000017
 Iteration  3 RMS(Cart)=  0.00000021 RMS(Int)=  0.00000000
 ClnCor:  largest displacement from symmetrization is 2.04D-15 for atom     3.
 Variable       Old X    -DE/DX   Delta X   Delta X   Delta X     New X
                                 (Linear)    (Quad)   (Total)
    R1        4.16644  -0.06541   0.00000   0.03728   0.03728   4.20372
    R2        1.85181  -0.00087   0.00000   0.00040   0.00040   1.85221
    A1        1.55245   0.00479   0.00000  -0.05072  -0.05072   1.50173
         Item               Value     Threshold  Converged?
 Maximum Force            0.065412     0.000450     NO 
 RMS     Force            0.037870     0.000300     NO 
 Maximum Displacement     0.040025     0.001800     NO 
 RMS     Displacement     0.036120     0.001200     NO 
 Predicted change in Energy= 2.799832D-03
 GradGradGradGradGradGradGradGradGradGradGradGradGradGradGradGradGradGrad

                          Input orientation:                          
 ---------------------------------------------------------------------
 Center     Atomic      Atomic             Coordinates (Angstroms)
 Number     Number       Type             X           Y           Z
 ---------------------------------------------------------------------
      1          8           0       -1.553428    0.595979   -1.900925
      2         17           0       -2.441621    1.426771   -0.038304
      3          1           0       -2.468019    0.589301   -2.253291
 ---------------------------------------------------------------------
                    Distance matrix (angstroms):
                    1          2          3
     1  O    0.000000
     2  Cl   2.224513   0.000000
     3  H    0.980145   2.368168   0.000000
 Stoichiometry    ClHO
 Framework group  CS[SG(ClHO)]
 Deg. of freedom     3
 Full point group                 CS      NOp   2
 Largest Abelian subgroup         CS      NOp   2
 Largest concise Abelian subgroup C1      NOp   1
                         Standard orientation:                         
 ---------------------------------------------------------------------
 Center     Atomic      Atomic             Coordinates (Angstroms)
 Number     Number       Type             X           Y           Z
 ---------------------------------------------------------------------
      1          8           0        0.037608    1.457091   -0.000000
      2         17           0        0.037608   -0.767422    0.000000
      3          1           0       -0.940200    1.389453   -0.000000
 ---------------------------------------------------------------------
 Rotational constants (GHZ):         555.9088579           8.9530480           8.8111424
 Standard basis: SVP (5D, 7F)
 There are    29 symmetry adapted cartesian basis functions of A'  symmetry.
 There are    10 symmetry adapted cartesian basis functions of A"  symmetry.
 There are    27 symmetry adapted basis functions of A'  symmetry.
 There are    10 symmetry adapted basis functions of A"  symmetry.
    37 basis functions,    69 primitive gaussians,    39 cartesian basis functions
    13 alpha electrons       13 beta electrons
       nuclear repulsion energy        40.4701903967 Hartrees.
 NAtoms=    3 NActive=    3 NUniq=    3 SFac= 1.00D+00 NAtFMM=   60 NAOKFM=F Big=F
 Integral buffers will be    131072 words long.
 Raffenetti 2 integral format.
 Two-electron integral symmetry is turned on.
 Nuclear repulsion after empirical dispersion term =       40.4685250929 Hartrees.
 One-electron integrals computed using PRISM.
 NBasis=    37 RedAO= T EigKep=  5.22D-02  NBF=    27    10
 NBsUse=    37 1.00D-06 EigRej= -1.00D+00 NBFU=    27    10
 Initial guess from the checkpoint file:  "/tmp/Gau-7894.chk"
 B after Tr=     0.000000    0.000000    0.000000
         Rot=    1.000000    0.000000   -0.000000   -0.000529 Ang=  -0.06 deg.
 Initial guess orbital symmetries:
       Occupied  (A') (A') (A') (A') (A') (A") (A') (A') (A') (A')
                 (A") (A') (A")
       Virtual   (A') (A') (A') (A') (A') (A") (A') (A') (A") (A')
                 (A") (A') (A') (A") (A') (A') (A") (A') (A') (A")
                 (A') (A') (A") (A')
 ExpMin= 1.22D-01 ExpMax= 1.04D+04 ExpMxC= 1.57D+03 IAcc=2 IRadAn=         4 AccDes= 0.00D+00
 Harris functional with IExCor=  402 and IRadAn=       4 diagonalized for initial guess.
 HarFok:  IExCor=  402 AccDes= 0.00D+00 IRadAn=         4 IDoV= 1 UseB2=F ITyADJ=14
 ICtDFT=  3500011 ScaDFX=  1.000000  1.000000  1.000000  1.000000
 FoFCou: FMM=F IPFlag=           0 FMFlag=      100000 FMFlg1=           0
         NFxFlg=           0 DoJE=T BraDBF=F KetDBF=T FulRan=T
         wScrn=  0.000000 ICntrl=       500 IOpCl=  0 I1Cent=   200000004 NGrid=           0
         NMat0=    1 NMatS0=      1 NMatT0=    0 NMatD0=    1 NMtDS0=    0 NMtDT0=    0
 Petite list used in FoFCou.
 Keep R1 ints in memory in symmetry-blocked form, NReq=7153137.
 Requested convergence on RMS density matrix=1.00D-08 within 128 cycles.
 Requested convergence on MAX density matrix=1.00D-06.
 Requested convergence on             energy=1.00D-06.
 No special actions if energy rises.
 Integral accuracy reduced to 1.0D-05 until final iterations.
 Initial convergence to 1.0D-05 achieved.  Increase integral accuracy.
 SCF Done:  E(RB3LYP) =  -535.713087441     A.U. after   13 cycles
            NFock= 13  Conv=0.24D-08     -V/T= 2.0032
 Calling FoFJK, ICntrl=      2127 FMM=F ISym2X=1 I1Cent= 0 IOpClX= 0 NMat=1 NMatS=1 NMatT=0.
 ***** Axes restored to original set *****
 -------------------------------------------------------------------
 Center     Atomic                   Forces (Hartrees/Bohr)
 Number     Number              X              Y              Z
 -------------------------------------------------------------------
      1        8          -0.030419507    0.025959430    0.057224581
      2       17           0.027833066   -0.024022540   -0.053070881
      3        1           0.002586441   -0.001936891   -0.004153700
 -------------------------------------------------------------------
 Cartesian Forces:  Max     0.057224581 RMS     0.031745281

 GradGradGradGradGradGradGradGradGradGradGradGradGradGradGradGradGradGrad
 Berny optimization.
 FormGI is forming the generalized inverse of G from B-inverse, IUseBI=4.
 Internal  Forces:  Max     0.064522361 RMS     0.037665693
 Search for a saddle point.
 Step number   4 out of a maximum of  100
 All quantities printed in internal units (Hartrees-Bohrs-Radians)
 Swapping is turned off.
 Update second derivatives using D2CorX and points    1    2    3    4
 The second derivative matrix:
                          R1        R2        A1
           R1           0.00323
           R2          -0.00728   0.46184
           A1           0.01986  -0.00248   0.10936
 ITU=  0  0  0  0
     Eigenvalues ---   -0.00047   0.11291   0.46198
 Eigenvectors required to have negative eigenvalues:
                          R1        A1        R2
   1                   -0.98400   0.17758  -0.01454
 RFO step:  Lambda0=6.497550302D-02 Lambda=-3.58140647D-05.
 Linear search not attempted -- option 19 set.
 Maximum step size (   0.300) exceeded in Quadratic search.
    -- Step size scaled by   0.301
 Iteration  1 RMS(Cart)=  0.08173517 RMS(Int)=  0.05444424
 Iteration  2 RMS(Cart)=  0.04342342 RMS(Int)=  0.00005706
 Iteration  3 RMS(Cart)=  0.00007874 RMS(Int)=  0.00000000
 Iteration  4 RMS(Cart)=  0.00000000 RMS(Int)=  0.00000000
 ClnCor:  largest displacement from symmetrization is 1.62D-15 for atom     1.
 Variable       Old X    -DE/DX   Delta X   Delta X   Delta X     New X
                                 (Linear)    (Quad)   (Total)
    R1        4.20372  -0.06452   0.00000   0.29420   0.29420   4.49792
    R2        1.85221  -0.00091   0.00000   0.00435   0.00435   1.85655
    A1        1.50173   0.00960   0.00000  -0.05854  -0.05854   1.44319
         Item               Value     Threshold  Converged?
 Maximum Force            0.064522     0.000450     NO 
 RMS     Force            0.037666     0.000300     NO 
 Maximum Displacement     0.135711     0.001800     NO 
 RMS     Displacement     0.121220     0.001200     NO 
 Predicted change in Energy= 1.952913D-02
 GradGradGradGradGradGradGradGradGradGradGradGradGradGradGradGradGradGrad

                          Input orientation:                          
 ---------------------------------------------------------------------
 Center     Atomic      Atomic             Coordinates (Angstroms)
 Number     Number       Type             X           Y           Z
 ---------------------------------------------------------------------
      1          8           0       -1.528445    0.568863   -1.963187
      2         17           0       -2.470689    1.458083    0.033511
      3          1           0       -2.463934    0.585105   -2.262844
 ---------------------------------------------------------------------
                    Distance matrix (angstroms):
                    1          2          3
     1  O    0.000000
     2  Cl   2.380198   0.000000
     3  H    0.982445   2.456702   0.000000
 Stoichiometry    ClHO
 Framework group  CS[SG(ClHO)]
 Deg. of freedom     3
 Full point group                 CS      NOp   2
 Largest Abelian subgroup         CS      NOp   2
 Largest concise Abelian subgroup C1      NOp   1
                         Standard orientation:                         
 ---------------------------------------------------------------------
 Center     Atomic      Atomic             Coordinates (Angstroms)
 Number     Number       Type             X           Y           Z
 ---------------------------------------------------------------------
      1          8           0        0.037479    1.561092    0.000000
      2         17           0        0.037479   -0.819106    0.000000
      3          1           0       -0.936979    1.436070    0.000000
 ---------------------------------------------------------------------
 Rotational constants (GHZ):         558.2877343           7.8404624           7.7318777
 Standard basis: SVP (5D, 7F)
 There are    29 symmetry adapted cartesian basis functions of A'  symmetry.
 There are    10 symmetry adapted cartesian basis functions of A"  symmetry.
 There are    27 symmetry adapted basis functions of A'  symmetry.
 There are    10 symmetry adapted basis functions of A"  symmetry.
    37 basis functions,    69 primitive gaussians,    39 cartesian basis functions
    13 alpha electrons       13 beta electrons
       nuclear repulsion energy        38.2070735466 Hartrees.
 NAtoms=    3 NActive=    3 NUniq=    3 SFac= 1.00D+00 NAtFMM=   60 NAOKFM=F Big=F
 Integral buffers will be    131072 words long.
 Raffenetti 2 integral format.
 Two-electron integral symmetry is turned on.
 Nuclear repulsion after empirical dispersion term =       38.2054107514 Hartrees.
 One-electron integrals computed using PRISM.
 NBasis=    37 RedAO= T EigKep=  5.41D-02  NBF=    27    10
 NBsUse=    37 1.00D-06 EigRej= -1.00D+00 NBFU=    27    10
 Initial guess from the checkpoint file:  "/tmp/Gau-7894.chk"
 B after Tr=    -0.000000   -0.000000    0.000000
         Rot=    1.000000   -0.000000    0.000000    0.000790 Ang=   0.09 deg.
 Initial guess orbital symmetries:
       Occupied  (A') (A') (A') (A') (A') (A") (A') (A') (A') (A')
                 (A") (A') (A")
       Virtual   (A') (A') (A') (A') (A') (A") (A') (A') (A") (A')
                 (A") (A') (A') (A") (A') (A') (A") (A') (A') (A")
                 (A') (A') (A") (A')
 ExpMin= 1.22D-01 ExpMax= 1.04D+04 ExpMxC= 1.57D+03 IAcc=2 IRadAn=         4 AccDes= 0.00D+00
 Harris functional with IExCor=  402 and IRadAn=       4 diagonalized for initial guess.
 HarFok:  IExCor=  402 AccDes= 0.00D+00 IRadAn=         4 IDoV= 1 UseB2=F ITyADJ=14
 ICtDFT=  3500011 ScaDFX=  1.000000  1.000000  1.000000  1.000000
 FoFCou: FMM=F IPFlag=           0 FMFlag=      100000 FMFlg1=           0
         NFxFlg=           0 DoJE=T BraDBF=F KetDBF=T FulRan=T
         wScrn=  0.000000 ICntrl=       500 IOpCl=  0 I1Cent=   200000004 NGrid=           0
         NMat0=    1 NMatS0=      1 NMatT0=    0 NMatD0=    1 NMtDS0=    0 NMtDT0=    0
 Petite list used in FoFCou.
 Keep R1 ints in memory in symmetry-blocked form, NReq=7153137.
 Requested convergence on RMS density matrix=1.00D-08 within 128 cycles.
 Requested convergence on MAX density matrix=1.00D-06.
 Requested convergence on             energy=1.00D-06.
 No special actions if energy rises.
 Integral accuracy reduced to 1.0D-05 until final iterations.
 Initial convergence to 1.0D-05 achieved.  Increase integral accuracy.
 SCF Done:  E(RB3LYP) =  -535.693733466     A.U. after   12 cycles
            NFock= 12  Conv=0.61D-08     -V/T= 2.0032
 Calling FoFJK, ICntrl=      2127 FMM=F ISym2X=1 I1Cent= 0 IOpClX= 0 NMat=1 NMatS=1 NMatT=0.
 ***** Axes restored to original set *****
 -------------------------------------------------------------------
 Center     Atomic                   Forces (Hartrees/Bohr)
 Number     Number              X              Y              Z
 -------------------------------------------------------------------
      1        8          -0.029903179    0.025180979    0.055363670
      2       17           0.026603189   -0.023303439   -0.051627449
      3        1           0.003299990   -0.001877540   -0.003736221
 -------------------------------------------------------------------
 Cartesian Forces:  Max     0.055363670 RMS     0.030800371

 GradGradGradGradGradGradGradGradGradGradGradGradGradGradGradGradGradGrad
 Berny optimization.
 FormGI is forming the generalized inverse of G from B-inverse, IUseBI=4.
 Internal  Forces:  Max     0.062547429 RMS     0.036513918
 Search for a saddle point.
 Step number   5 out of a maximum of  100
 All quantities printed in internal units (Hartrees-Bohrs-Radians)
 Swapping is turned off.
 Update second derivatives using D2CorX and points    2    3    4    5
 The second derivative matrix:
                          R1        R2        A1
           R1          -0.00208
           R2          -0.00381   0.46025
           A1           0.02302  -0.00419   0.10746
 ITU=  0  0  0  0
     Eigenvalues ---   -0.00673   0.11203   0.46033
 Eigenvectors required to have negative eigenvalues:
                          R1        A1        R2
   1                   -0.98031   0.19735  -0.00622
 RFO step:  Lambda0=5.985436140D-02 Lambda=-1.09144887D-04.
 Linear search not attempted -- option 19 set.
 Maximum step size (   0.300) exceeded in Quadratic search.
    -- Step size scaled by   0.316
 Iteration  1 RMS(Cart)=  0.08288024 RMS(Int)=  0.05323000
 Iteration  2 RMS(Cart)=  0.04262199 RMS(Int)=  0.00004986
 Iteration  3 RMS(Cart)=  0.00007024 RMS(Int)=  0.00000000
 Iteration  4 RMS(Cart)=  0.00000000 RMS(Int)=  0.00000000
 ClnCor:  largest displacement from symmetrization is 2.04D-15 for atom     3.
 Variable       Old X    -DE/DX   Delta X   Delta X   Delta X     New X
                                 (Linear)    (Quad)   (Total)
    R1        4.49792  -0.06255   0.00000   0.29205   0.29205   4.78998
    R2        1.85655  -0.00203   0.00000   0.00064   0.00064   1.85719
    A1        1.44319   0.00914   0.00000  -0.06859  -0.06859   1.37461
         Item               Value     Threshold  Converged?
 Maximum Force            0.062547     0.000450     NO 
 RMS     Force            0.036514     0.000300     NO 
 Maximum Displacement     0.127790     0.001800     NO 
 RMS     Displacement     0.119745     0.001200     NO 
 Predicted change in Energy= 1.859792D-02
 GradGradGradGradGradGradGradGradGradGradGradGradGradGradGradGradGradGrad

                          Input orientation:                          
 ---------------------------------------------------------------------
 Center     Atomic      Atomic             Coordinates (Angstroms)
 Number     Number       Type             X           Y           Z
 ---------------------------------------------------------------------
      1          8           0       -1.504647    0.540757   -2.028488
      2         17           0       -2.500866    1.487958    0.101135
      3          1           0       -2.457555    0.583337   -2.265167
 ---------------------------------------------------------------------
                    Distance matrix (angstroms):
                    1          2          3
     1  O    0.000000
     2  Cl   2.534746   0.000000
     3  H    0.982784   2.533693   0.000000
 Stoichiometry    ClHO
 Framework group  CS[SG(ClHO)]
 Deg. of freedom     3
 Full point group                 CS      NOp   2
 Largest Abelian subgroup         CS      NOp   2
 Largest concise Abelian subgroup C1      NOp   1
                         Standard orientation:                         
 ---------------------------------------------------------------------
 Center     Atomic      Atomic             Coordinates (Angstroms)
 Number     Number       Type             X           Y           Z
 ---------------------------------------------------------------------
      1          8           0        0.037074    1.664702    0.000000
      2         17           0        0.037074   -0.870044   -0.000000
      3          1           0       -0.926856    1.473125    0.000000
 ---------------------------------------------------------------------
 Rotational constants (GHZ):         569.0691009           6.9314933           6.8480809
 Standard basis: SVP (5D, 7F)
 There are    29 symmetry adapted cartesian basis functions of A'  symmetry.
 There are    10 symmetry adapted cartesian basis functions of A"  symmetry.
 There are    27 symmetry adapted basis functions of A'  symmetry.
 There are    10 symmetry adapted basis functions of A"  symmetry.
    37 basis functions,    69 primitive gaussians,    39 cartesian basis functions
    13 alpha electrons       13 beta electrons
       nuclear repulsion energy        36.2507619253 Hartrees.
 NAtoms=    3 NActive=    3 NUniq=    3 SFac= 1.00D+00 NAtFMM=   60 NAOKFM=F Big=F
 Integral buffers will be    131072 words long.
 Raffenetti 2 integral format.
 Two-electron integral symmetry is turned on.
 Nuclear repulsion after empirical dispersion term =       36.2491361896 Hartrees.
 One-electron integrals computed using PRISM.
 NBasis=    37 RedAO= T EigKep=  5.50D-02  NBF=    27    10
 NBsUse=    37 1.00D-06 EigRej= -1.00D+00 NBFU=    27    10
 Initial guess from the checkpoint file:  "/tmp/Gau-7894.chk"
 B after Tr=    -0.000000   -0.000000   -0.000000
         Rot=    1.000000    0.000000   -0.000000    0.000713 Ang=   0.08 deg.
 Initial guess orbital symmetries:
       Occupied  (A') (A') (A') (A') (A') (A") (A') (A') (A') (A')
                 (A") (A') (A")
       Virtual   (A') (A') (A') (A') (A') (A") (A') (A') (A") (A')
                 (A") (A') (A') (A") (A') (A') (A") (A') (A') (A")
                 (A') (A') (A") (A')
 ExpMin= 1.22D-01 ExpMax= 1.04D+04 ExpMxC= 1.57D+03 IAcc=2 IRadAn=         4 AccDes= 0.00D+00
 Harris functional with IExCor=  402 and IRadAn=       4 diagonalized for initial guess.
 HarFok:  IExCor=  402 AccDes= 0.00D+00 IRadAn=         4 IDoV= 1 UseB2=F ITyADJ=14
 ICtDFT=  3500011 ScaDFX=  1.000000  1.000000  1.000000  1.000000
 FoFCou: FMM=F IPFlag=           0 FMFlag=      100000 FMFlg1=           0
         NFxFlg=           0 DoJE=T BraDBF=F KetDBF=T FulRan=T
         wScrn=  0.000000 ICntrl=       500 IOpCl=  0 I1Cent=   200000004 NGrid=           0
         NMat0=    1 NMatS0=      1 NMatT0=    0 NMatD0=    1 NMtDS0=    0 NMtDT0=    0
 Petite list used in FoFCou.
 Keep R1 ints in memory in symmetry-blocked form, NReq=7153137.
 Requested convergence on RMS density matrix=1.00D-08 within 128 cycles.
 Requested convergence on MAX density matrix=1.00D-06.
 Requested convergence on             energy=1.00D-06.
 No special actions if energy rises.
 Integral accuracy reduced to 1.0D-05 until final iterations.
 Initial convergence to 1.0D-05 achieved.  Increase integral accuracy.
 SCF Done:  E(RB3LYP) =  -535.675549701     A.U. after   14 cycles
            NFock= 14  Conv=0.16D-08     -V/T= 2.0032
 Calling FoFJK, ICntrl=      2127 FMM=F ISym2X=1 I1Cent= 0 IOpClX= 0 NMat=1 NMatS=1 NMatT=0.
 ***** Axes restored to original set *****
 -------------------------------------------------------------------
 Center     Atomic                   Forces (Hartrees/Bohr)
 Number     Number              X              Y              Z
 -------------------------------------------------------------------
      1        8          -0.026917109    0.023301470    0.051507355
      2       17           0.024293545   -0.021325404   -0.047264084
      3        1           0.002623564   -0.001976066   -0.004243272
 -------------------------------------------------------------------
 Cartesian Forces:  Max     0.051507355 RMS     0.028339476

 GradGradGradGradGradGradGradGradGradGradGradGradGradGradGradGradGradGrad
 Berny optimization.
 FormGI is forming the generalized inverse of G from B-inverse, IUseBI=4.
 Internal  Forces:  Max     0.057227998 RMS     0.033506036
 Search for a saddle point.
 Step number   6 out of a maximum of  100
 All quantities printed in internal units (Hartrees-Bohrs-Radians)
 Swapping is turned off.
 Second derivative matrix not updated -- analytic derivatives used.
 The second derivative matrix:
                          R1        R2        A1
           R1          -0.00208
           R2          -0.00381   0.46025
           A1           0.02302  -0.00419   0.10746
 ITU=  0  0  0  0
     Eigenvalues ---   -0.00673   0.11203   0.46033
 Eigenvectors required to have negative eigenvalues:
                          R1        A1        R2
   1                   -0.98031   0.19735  -0.00622
 RFO step:  Lambda0=5.471750011D-02 Lambda=-3.86789701D-05.
 Linear search not attempted -- option 19 set.
 Maximum step size (   0.300) exceeded in Quadratic search.
    -- Step size scaled by   0.318
 Iteration  1 RMS(Cart)=  0.08274377 RMS(Int)=  0.05373559
 Iteration  2 RMS(Cart)=  0.04320187 RMS(Int)=  0.00004304
 Iteration  3 RMS(Cart)=  0.00006180 RMS(Int)=  0.00000000
 Iteration  4 RMS(Cart)=  0.00000000 RMS(Int)=  0.00000000
 ClnCor:  largest displacement from symmetrization is 1.26D-15 for atom     3.
 Variable       Old X    -DE/DX   Delta X   Delta X   Delta X     New X
                                 (Linear)    (Quad)   (Total)
    R1        4.78998  -0.05723   0.00000   0.29293   0.29293   5.08291
    R2        1.85719  -0.00160   0.00000   0.00095   0.00095   1.85814
    A1        1.37461   0.00950   0.00000  -0.06473  -0.06473   1.30988
         Item               Value     Threshold  Converged?
 Maximum Force            0.057228     0.000450     NO 
 RMS     Force            0.033506     0.000300     NO 
 Maximum Displacement     0.130909     0.001800     NO 
 RMS     Displacement     0.120608     0.001200     NO 
 Predicted change in Energy= 1.707969D-02
 GradGradGradGradGradGradGradGradGradGradGradGradGradGradGradGradGradGrad

                          Input orientation:                          
 ---------------------------------------------------------------------
 Center     Atomic      Atomic             Coordinates (Angstroms)
 Number     Number       Type             X           Y           Z
 ---------------------------------------------------------------------
      1          8           0       -1.483525    0.512985   -2.093888
      2         17           0       -2.530827    1.518429    0.170409
      3          1           0       -2.448716    0.580637   -2.269041
 ---------------------------------------------------------------------
                    Distance matrix (angstroms):
                    1          2          3
     1  O    0.000000
     2  Cl   2.689759   0.000000
     3  H    0.983285   2.614787   0.000000
 Stoichiometry    ClHO
 Framework group  CS[SG(ClHO)]
 Deg. of freedom     3
 Full point group                 CS      NOp   2
 Largest Abelian subgroup         CS      NOp   2
 Largest concise Abelian subgroup C1      NOp   1
                         Standard orientation:                         
 ---------------------------------------------------------------------
 Center     Atomic      Atomic             Coordinates (Angstroms)
 Number     Number       Type             X           Y           Z
 ---------------------------------------------------------------------
      1          8           0        0.036539    1.768445    0.000000
      2         17           0        0.036539   -0.921314   -0.000000
      3          1           0       -0.913466    1.514789    0.000000
 ---------------------------------------------------------------------
 Rotational constants (GHZ):         584.6801106           6.1681563           6.1037639
 Standard basis: SVP (5D, 7F)
 There are    29 symmetry adapted cartesian basis functions of A'  symmetry.
 There are    10 symmetry adapted cartesian basis functions of A"  symmetry.
 There are    27 symmetry adapted basis functions of A'  symmetry.
 There are    10 symmetry adapted basis functions of A"  symmetry.
    37 basis functions,    69 primitive gaussians,    39 cartesian basis functions
    13 alpha electrons       13 beta electrons
       nuclear repulsion energy        34.5021573971 Hartrees.
 NAtoms=    3 NActive=    3 NUniq=    3 SFac= 1.00D+00 NAtFMM=   60 NAOKFM=F Big=F
 Integral buffers will be    131072 words long.
 Raffenetti 2 integral format.
 Two-electron integral symmetry is turned on.
 Nuclear repulsion after empirical dispersion term =       34.5005862364 Hartrees.
 One-electron integrals computed using PRISM.
 NBasis=    37 RedAO= T EigKep=  5.53D-02  NBF=    27    10
 NBsUse=    37 1.00D-06 EigRej= -1.00D+00 NBFU=    27    10
 Initial guess from the checkpoint file:  "/tmp/Gau-7894.chk"
 B after Tr=     0.000000    0.000000    0.000000
         Rot=    1.000000   -0.000000    0.000000    0.000753 Ang=   0.09 deg.
 Initial guess orbital symmetries:
       Occupied  (A') (A') (A') (A') (A') (A") (A') (A') (A') (A')
                 (A") (A') (A")
       Virtual   (A') (A') (A') (A') (A') (A") (A') (A') (A") (A')
                 (A") (A') (A') (A") (A') (A') (A") (A') (A') (A")
                 (A') (A') (A") (A')
 ExpMin= 1.22D-01 ExpMax= 1.04D+04 ExpMxC= 1.57D+03 IAcc=2 IRadAn=         4 AccDes= 0.00D+00
 Harris functional with IExCor=  402 and IRadAn=       4 diagonalized for initial guess.
 HarFok:  IExCor=  402 AccDes= 0.00D+00 IRadAn=         4 IDoV= 1 UseB2=F ITyADJ=14
 ICtDFT=  3500011 ScaDFX=  1.000000  1.000000  1.000000  1.000000
 FoFCou: FMM=F IPFlag=           0 FMFlag=      100000 FMFlg1=           0
         NFxFlg=           0 DoJE=T BraDBF=F KetDBF=T FulRan=T
         wScrn=  0.000000 ICntrl=       500 IOpCl=  0 I1Cent=   200000004 NGrid=           0
         NMat0=    1 NMatS0=      1 NMatT0=    0 NMatD0=    1 NMtDS0=    0 NMtDT0=    0
 Petite list used in FoFCou.
 Keep R1 ints in memory in symmetry-blocked form, NReq=7153137.
 Requested convergence on RMS density matrix=1.00D-08 within 128 cycles.
 Requested convergence on MAX density matrix=1.00D-06.
 Requested convergence on             energy=1.00D-06.
 No special actions if energy rises.
 Integral accuracy reduced to 1.0D-05 until final iterations.
 Initial convergence to 1.0D-05 achieved.  Increase integral accuracy.
 SCF Done:  E(RB3LYP) =  -535.659136916     A.U. after   15 cycles
            NFock= 15  Conv=0.32D-08     -V/T= 2.0031
 Calling FoFJK, ICntrl=      2127 FMM=F ISym2X=1 I1Cent= 0 IOpClX= 0 NMat=1 NMatS=1 NMatT=0.
 ***** Axes restored to original set *****
 -------------------------------------------------------------------
 Center     Atomic                   Forces (Hartrees/Bohr)
 Number     Number              X              Y              Z
 -------------------------------------------------------------------
      1        8          -0.023508760    0.020781840    0.046119972
      2       17           0.021339967   -0.018831373   -0.041777645
      3        1           0.002168794   -0.001950467   -0.004342327
 -------------------------------------------------------------------
 Cartesian Forces:  Max     0.046119972 RMS     0.025153636

 GradGradGradGradGradGradGradGradGradGradGradGradGradGradGradGradGradGrad
 Berny optimization.
 FormGI is forming the generalized inverse of G from B-inverse, IUseBI=4.
 Internal  Forces:  Max     0.050517983 RMS     0.029670889
 Search for a saddle point.
 Step number   7 out of a maximum of  100
 All quantities printed in internal units (Hartrees-Bohrs-Radians)
 Swapping is turned off.
 Update second derivatives using D2CorX and points    5    6    7
 The second derivative matrix:
                          R1        R2        A1
           R1          -0.01751
           R2          -0.00283   0.46018
           A1           0.02438  -0.00428   0.10734
 ITU=  0  0  0  0
     Eigenvalues ---   -0.02211   0.11187   0.46025
 Eigenvectors required to have negative eigenvalues:
                          R1        A1        R2
   1                   -0.98275   0.18491  -0.00413
 RFO step:  Lambda0=4.149650183D-02 Lambda=-3.89299723D-06.
 Linear search not attempted -- option 19 set.
 Maximum step size (   0.300) exceeded in Quadratic search.
    -- Step size scaled by   0.371
 Iteration  1 RMS(Cart)=  0.08244706 RMS(Int)=  0.05473540
 Iteration  2 RMS(Cart)=  0.04416322 RMS(Int)=  0.00003660
 Iteration  3 RMS(Cart)=  0.00005341 RMS(Int)=  0.00000000
 Iteration  4 RMS(Cart)=  0.00000000 RMS(Int)=  0.00000000
 ClnCor:  largest displacement from symmetrization is 1.95D-15 for atom     1.
 Variable       Old X    -DE/DX   Delta X   Delta X   Delta X     New X
                                 (Linear)    (Quad)   (Total)
    R1        5.08291  -0.05052   0.00000   0.29470   0.29470   5.37761
    R2        1.85814  -0.00149   0.00000   0.00020   0.00020   1.85834
    A1        1.30988   0.00932   0.00000  -0.05612  -0.05612   1.25376
         Item               Value     Threshold  Converged?
 Maximum Force            0.050518     0.000450     NO 
 RMS     Force            0.029671     0.000300     NO 
 Maximum Displacement     0.137818     0.001800     NO 
 RMS     Displacement     0.122467     0.001200     NO 
 Predicted change in Energy= 1.441638D-02
 GradGradGradGradGradGradGradGradGradGradGradGradGradGradGradGradGradGrad

                          Input orientation:                          
 ---------------------------------------------------------------------
 Center     Atomic      Atomic             Coordinates (Angstroms)
 Number     Number       Type             X           Y           Z
 ---------------------------------------------------------------------
      1          8           0       -1.465447    0.486067   -2.158153
      2         17           0       -2.560207    1.550209    0.243339
      3          1           0       -2.437414    0.575775   -2.277706
 ---------------------------------------------------------------------
                    Distance matrix (angstroms):
                    1          2          3
     1  O    0.000000
     2  Cl   2.845710   0.000000
     3  H    0.983392   2.705599   0.000000
 Stoichiometry    ClHO
 Framework group  CS[SG(ClHO)]
 Deg. of freedom     3
 Full point group                 CS      NOp   2
 Largest Abelian subgroup         CS      NOp   2
 Largest concise Abelian subgroup C1      NOp   1
                         Standard orientation:                         
 ---------------------------------------------------------------------
 Center     Atomic      Atomic             Coordinates (Angstroms)
 Number     Number       Type             X           Y           Z
 ---------------------------------------------------------------------
      1          8           0        0.035938    1.872448   -0.000000
      2         17           0        0.035938   -0.973262    0.000000
      3          1           0       -0.898445    1.565871   -0.000000
 ---------------------------------------------------------------------
 Rotational constants (GHZ):         603.5299153           5.5185185           5.4685158
 Standard basis: SVP (5D, 7F)
 There are    29 symmetry adapted cartesian basis functions of A'  symmetry.
 There are    10 symmetry adapted cartesian basis functions of A"  symmetry.
 There are    27 symmetry adapted basis functions of A'  symmetry.
 There are    10 symmetry adapted basis functions of A"  symmetry.
    37 basis functions,    69 primitive gaussians,    39 cartesian basis functions
    13 alpha electrons       13 beta electrons
       nuclear repulsion energy        32.9199118183 Hartrees.
 NAtoms=    3 NActive=    3 NUniq=    3 SFac= 1.00D+00 NAtFMM=   60 NAOKFM=F Big=F
 Integral buffers will be    131072 words long.
 Raffenetti 2 integral format.
 Two-electron integral symmetry is turned on.
 Nuclear repulsion after empirical dispersion term =       32.9184121305 Hartrees.
 One-electron integrals computed using PRISM.
 NBasis=    37 RedAO= T EigKep=  5.53D-02  NBF=    27    10
 NBsUse=    37 1.00D-06 EigRej= -1.00D+00 NBFU=    27    10
 Initial guess from the checkpoint file:  "/tmp/Gau-7894.chk"
 B after Tr=    -0.000000    0.000000   -0.000000
         Rot=    1.000000   -0.000000    0.000000    0.000803 Ang=   0.09 deg.
 Initial guess orbital symmetries:
       Occupied  (A') (A') (A') (A') (A') (A") (A') (A') (A') (A')
                 (A") (A') (A")
       Virtual   (A') (A') (A') (A') (A') (A") (A') (A") (A') (A')
                 (A") (A') (A') (A") (A') (A') (A") (A') (A') (A")
                 (A') (A') (A") (A')
 ExpMin= 1.22D-01 ExpMax= 1.04D+04 ExpMxC= 1.57D+03 IAcc=2 IRadAn=         4 AccDes= 0.00D+00
 Harris functional with IExCor=  402 and IRadAn=       4 diagonalized for initial guess.
 HarFok:  IExCor=  402 AccDes= 0.00D+00 IRadAn=         4 IDoV= 1 UseB2=F ITyADJ=14
 ICtDFT=  3500011 ScaDFX=  1.000000  1.000000  1.000000  1.000000
 FoFCou: FMM=F IPFlag=           0 FMFlag=      100000 FMFlg1=           0
         NFxFlg=           0 DoJE=T BraDBF=F KetDBF=T FulRan=T
         wScrn=  0.000000 ICntrl=       500 IOpCl=  0 I1Cent=   200000004 NGrid=           0
         NMat0=    1 NMatS0=      1 NMatT0=    0 NMatD0=    1 NMtDS0=    0 NMtDT0=    0
 Petite list used in FoFCou.
 Keep R1 ints in memory in symmetry-blocked form, NReq=7153137.
 Requested convergence on RMS density matrix=1.00D-08 within 128 cycles.
 Requested convergence on MAX density matrix=1.00D-06.
 Requested convergence on             energy=1.00D-06.
 No special actions if energy rises.
 Integral accuracy reduced to 1.0D-05 until final iterations.
 Initial convergence to 1.0D-05 achieved.  Increase integral accuracy.
 SCF Done:  E(RB3LYP) =  -535.644780718     A.U. after   15 cycles
            NFock= 15  Conv=0.26D-08     -V/T= 2.0030
 Calling FoFJK, ICntrl=      2127 FMM=F ISym2X=1 I1Cent= 0 IOpClX= 0 NMat=1 NMatS=1 NMatT=0.
 ***** Axes restored to original set *****
 -------------------------------------------------------------------
 Center     Atomic                   Forces (Hartrees/Bohr)
 Number     Number              X              Y              Z
 -------------------------------------------------------------------
      1        8          -0.019703430    0.018006006    0.040203233
      2       17           0.018196525   -0.016226965   -0.036070045
      3        1           0.001506905   -0.001779041   -0.004133188
 -------------------------------------------------------------------
 Cartesian Forces:  Max     0.040203233 RMS     0.021722330

 GradGradGradGradGradGradGradGradGradGradGradGradGradGradGradGradGradGrad
 Berny optimization.
 FormGI is forming the generalized inverse of G from B-inverse, IUseBI=4.
 Internal  Forces:  Max     0.043506982 RMS     0.025608726
 Search for a saddle point.
 Step number   8 out of a maximum of  100
 All quantities printed in internal units (Hartrees-Bohrs-Radians)
 Swapping is turned off.
 Update second derivatives using D2CorX and points    6    7    8
 The second derivative matrix:
                          R1        R2        A1
           R1          -0.01941
           R2          -0.00225   0.46009
           A1           0.02299  -0.00414   0.10720
 ITU=  0  0  0  0
     Eigenvalues ---   -0.02346   0.11119   0.46015
 Eigenvectors required to have negative eigenvalues:
                          R1        A1        R2
   1                   -0.98488   0.17321  -0.00309
 RFO step:  Lambda0=3.413026853D-02 Lambda=-9.24387432D-06.
 Linear search not attempted -- option 19 set.
 Maximum step size (   0.300) exceeded in Quadratic search.
    -- Step size scaled by   0.390
 Iteration  1 RMS(Cart)=  0.08262978 RMS(Int)=  0.05545980
 Iteration  2 RMS(Cart)=  0.04485170 RMS(Int)=  0.00003108
 Iteration  3 RMS(Cart)=  0.00004588 RMS(Int)=  0.00000000
 Iteration  4 RMS(Cart)=  0.00000000 RMS(Int)=  0.00000000
 ClnCor:  largest displacement from symmetrization is 4.19D-15 for atom     1.
 Variable       Old X    -DE/DX   Delta X   Delta X   Delta X     New X
                                 (Linear)    (Quad)   (Total)
    R1        5.37761  -0.04351   0.00000   0.29599   0.29599   5.67360
    R2        1.85834  -0.00115   0.00000   0.00010   0.00010   1.85844
    A1        1.25376   0.00856   0.00000  -0.04891  -0.04891   1.20484
         Item               Value     Threshold  Converged?
 Maximum Force            0.043507     0.000450     NO 
 RMS     Force            0.025609     0.000300     NO 
 Maximum Displacement     0.143634     0.001800     NO 
 RMS     Displacement     0.124291     0.001200     NO 
 Predicted change in Energy= 1.224124D-02
 GradGradGradGradGradGradGradGradGradGradGradGradGradGradGradGradGradGrad

                          Input orientation:                          
 ---------------------------------------------------------------------
 Center     Atomic      Atomic             Coordinates (Angstroms)
 Number     Number       Type             X           Y           Z
 ---------------------------------------------------------------------
      1          8           0       -1.449535    0.459945   -2.221118
      2         17           0       -2.589104    1.583089    0.319347
      3          1           0       -2.424429    0.569017   -2.290749
 ---------------------------------------------------------------------
                    Distance matrix (angstroms):
                    1          2          3
     1  O    0.000000
     2  Cl   3.002338   0.000000
     3  H    0.983445   2.805007   0.000000
 Stoichiometry    ClHO
 Framework group  CS[SG(ClHO)]
 Deg. of freedom     3
 Full point group                 CS      NOp   2
 Largest Abelian subgroup         CS      NOp   2
 Largest concise Abelian subgroup C1      NOp   1
                         Standard orientation:                         
 ---------------------------------------------------------------------
 Center     Atomic      Atomic             Coordinates (Angstroms)
 Number     Number       Type             X           Y           Z
 ---------------------------------------------------------------------
      1          8           0        0.035320    1.976603    0.000000
      2         17           0        0.035320   -1.025736   -0.000000
      3          1           0       -0.883004    1.624688    0.000000
 ---------------------------------------------------------------------
 Rotational constants (GHZ):         624.2001893           4.9626868           4.9235423
 Standard basis: SVP (5D, 7F)
 There are    29 symmetry adapted cartesian basis functions of A'  symmetry.
 There are    10 symmetry adapted cartesian basis functions of A"  symmetry.
 There are    27 symmetry adapted basis functions of A'  symmetry.
 There are    10 symmetry adapted basis functions of A"  symmetry.
    37 basis functions,    69 primitive gaussians,    39 cartesian basis functions
    13 alpha electrons       13 beta electrons
       nuclear repulsion energy        31.4824938293 Hartrees.
 NAtoms=    3 NActive=    3 NUniq=    3 SFac= 1.00D+00 NAtFMM=   60 NAOKFM=F Big=F
 Integral buffers will be    131072 words long.
 Raffenetti 2 integral format.
 Two-electron integral symmetry is turned on.
 Nuclear repulsion after empirical dispersion term =       31.4810818707 Hartrees.
 One-electron integrals computed using PRISM.
 NBasis=    37 RedAO= T EigKep=  5.51D-02  NBF=    27    10
 NBsUse=    37 1.00D-06 EigRej= -1.00D+00 NBFU=    27    10
 Initial guess from the checkpoint file:  "/tmp/Gau-7894.chk"
 B after Tr=     0.000000    0.000000    0.000000
         Rot=    1.000000   -0.000000    0.000000    0.000802 Ang=   0.09 deg.
 Initial guess orbital symmetries:
       Occupied  (A') (A') (A') (A') (A') (A") (A') (A') (A') (A')
                 (A") (A') (A")
       Virtual   (A') (A') (A') (A') (A') (A") (A') (A") (A') (A')
                 (A") (A') (A') (A") (A') (A') (A') (A") (A') (A")
                 (A') (A') (A") (A')
 ExpMin= 1.22D-01 ExpMax= 1.04D+04 ExpMxC= 1.57D+03 IAcc=2 IRadAn=         4 AccDes= 0.00D+00
 Harris functional with IExCor=  402 and IRadAn=       4 diagonalized for initial guess.
 HarFok:  IExCor=  402 AccDes= 0.00D+00 IRadAn=         4 IDoV= 1 UseB2=F ITyADJ=14
 ICtDFT=  3500011 ScaDFX=  1.000000  1.000000  1.000000  1.000000
 FoFCou: FMM=F IPFlag=           0 FMFlag=      100000 FMFlg1=           0
         NFxFlg=           0 DoJE=T BraDBF=F KetDBF=T FulRan=T
         wScrn=  0.000000 ICntrl=       500 IOpCl=  0 I1Cent=   200000004 NGrid=           0
         NMat0=    1 NMatS0=      1 NMatT0=    0 NMatD0=    1 NMtDS0=    0 NMtDT0=    0
 Petite list used in FoFCou.
 Keep R1 ints in memory in symmetry-blocked form, NReq=7153137.
 Requested convergence on RMS density matrix=1.00D-08 within 128 cycles.
 Requested convergence on MAX density matrix=1.00D-06.
 Requested convergence on             energy=1.00D-06.
 No special actions if energy rises.
 Integral accuracy reduced to 1.0D-05 until final iterations.
 Initial convergence to 1.0D-05 achieved.  Increase integral accuracy.
 SCF Done:  E(RB3LYP) =  -535.632509354     A.U. after   17 cycles
            NFock= 17  Conv=0.56D-08     -V/T= 2.0030
 Calling FoFJK, ICntrl=      2127 FMM=F ISym2X=1 I1Cent= 0 IOpClX= 0 NMat=1 NMatS=1 NMatT=0.
 ***** Axes restored to original set *****
 -------------------------------------------------------------------
 Center     Atomic                   Forces (Hartrees/Bohr)
 Number     Number              X              Y              Z
 -------------------------------------------------------------------
      1        8          -0.016200799    0.015299360    0.034357889
      2       17           0.015206700   -0.013749559   -0.030640651
      3        1           0.000994099   -0.001549802   -0.003717238
 -------------------------------------------------------------------
 Cartesian Forces:  Max     0.034357889 RMS     0.018419049

 GradGradGradGradGradGradGradGradGradGradGradGradGradGradGradGradGradGrad
 Berny optimization.
 FormGI is forming the generalized inverse of G from B-inverse, IUseBI=4.
 Internal  Forces:  Max     0.036841184 RMS     0.021716227
 Search for a saddle point.
 Step number   9 out of a maximum of  100
 All quantities printed in internal units (Hartrees-Bohrs-Radians)
 Swapping is turned off.
 Update second derivatives using D2CorX and points    7    8    9
 The second derivative matrix:
                          R1        R2        A1
           R1          -0.01898
           R2          -0.00175   0.46017
           A1           0.02139  -0.00445   0.10842
 ITU=  0  0  0  0
     Eigenvalues ---   -0.02248   0.11186   0.46023
 Eigenvectors required to have negative eigenvalues:
                          R1        A1        R2
   1                   -0.98692   0.16120  -0.00209
 RFO step:  Lambda0=2.797919549D-02 Lambda=-2.11601553D-05.
 Linear search not attempted -- option 19 set.
 Maximum step size (   0.300) exceeded in Quadratic search.
    -- Step size scaled by   0.403
 Iteration  1 RMS(Cart)=  0.08311595 RMS(Int)=  0.05597167
 Iteration  2 RMS(Cart)=  0.04534192 RMS(Int)=  0.00002644
 Iteration  3 RMS(Cart)=  0.00003936 RMS(Int)=  0.00000000
 Iteration  4 RMS(Cart)=  0.00000000 RMS(Int)=  0.00000000
 ClnCor:  largest displacement from symmetrization is 4.44D-16 for atom     2.
 Variable       Old X    -DE/DX   Delta X   Delta X   Delta X     New X
                                 (Linear)    (Quad)   (Total)
    R1        5.67360  -0.03684   0.00000   0.29689   0.29689   5.97049
    R2        1.85844  -0.00090   0.00000  -0.00004  -0.00004   1.85840
    A1        1.20484   0.00753   0.00000  -0.04308  -0.04308   1.16177
         Item               Value     Threshold  Converged?
 Maximum Force            0.036841     0.000450     NO 
 RMS     Force            0.021716     0.000300     NO 
 Maximum Displacement     0.148356     0.001800     NO 
 RMS     Displacement     0.125973     0.001200     NO 
 Predicted change in Energy= 1.025249D-02
 GradGradGradGradGradGradGradGradGradGradGradGradGradGradGradGradGradGrad

                          Input orientation:                          
 ---------------------------------------------------------------------
 Center     Atomic      Atomic             Coordinates (Angstroms)
 Number     Number       Type             X           Y           Z
 ---------------------------------------------------------------------
      1          8           0       -1.435228    0.434519   -2.282835
      2         17           0       -2.617625    1.616867    0.397854
      3          1           0       -2.410215    0.560666   -2.307539
 ---------------------------------------------------------------------
                    Distance matrix (angstroms):
                    1          2          3
     1  O    0.000000
     2  Cl   3.159446   0.000000
     3  H    0.983425   2.911654   0.000000
 Stoichiometry    ClHO
 Framework group  CS[SG(ClHO)]
 Deg. of freedom     3
 Full point group                 CS      NOp   2
 Largest Abelian subgroup         CS      NOp   2
 Largest concise Abelian subgroup C1      NOp   1
                         Standard orientation:                         
 ---------------------------------------------------------------------
 Center     Atomic      Atomic             Coordinates (Angstroms)
 Number     Number       Type             X           Y           Z
 ---------------------------------------------------------------------
      1          8           0        0.034704    2.080835   -0.000000
      2         17           0        0.034704   -1.078611    0.000000
      3          1           0       -0.867595    1.689707   -0.000000
 ---------------------------------------------------------------------
 Rotational constants (GHZ):         646.1255531           4.4844819           4.4535715
 Standard basis: SVP (5D, 7F)
 There are    29 symmetry adapted cartesian basis functions of A'  symmetry.
 There are    10 symmetry adapted cartesian basis functions of A"  symmetry.
 There are    27 symmetry adapted basis functions of A'  symmetry.
 There are    10 symmetry adapted basis functions of A"  symmetry.
    37 basis functions,    69 primitive gaussians,    39 cartesian basis functions
    13 alpha electrons       13 beta electrons
       nuclear repulsion energy        30.1731342607 Hartrees.
 NAtoms=    3 NActive=    3 NUniq=    3 SFac= 1.00D+00 NAtFMM=   60 NAOKFM=F Big=F
 Integral buffers will be    131072 words long.
 Raffenetti 2 integral format.
 Two-electron integral symmetry is turned on.
 Nuclear repulsion after empirical dispersion term =       30.1718240845 Hartrees.
 One-electron integrals computed using PRISM.
 NBasis=    37 RedAO= T EigKep=  5.49D-02  NBF=    27    10
[...]
 Iteration 92 RMS(Cart)=  0.01068222 RMS(Int)=  0.00756980
 Iteration 93 RMS(Cart)=  0.01068222 RMS(Int)=  0.00756980
 Iteration 94 RMS(Cart)=  0.01068222 RMS(Int)=  0.00756980
 Iteration 95 RMS(Cart)=  0.01068222 RMS(Int)=  0.00756980
 Iteration 96 RMS(Cart)=  0.01068222 RMS(Int)=  0.00756980
 Iteration 97 RMS(Cart)=  0.01068222 RMS(Int)=  0.00756980
 Iteration 98 RMS(Cart)=  0.01068222 RMS(Int)=  0.00756980
 Iteration 99 RMS(Cart)=  0.01068222 RMS(Int)=  0.00756980
 Iteration100 RMS(Cart)=  0.01068222 RMS(Int)=  0.00756980
 New curvilinear step not converged.
 ITry= 7 IFail=1 DXMaxC= 6.77D-02 DCOld= 1.00D+10 DXMaxT= 3.00D-01 DXLimC= 3.00D+00 Rises=F
 Iteration  1 RMS(Cart)=  0.04519098 RMS(Int)=  0.00032829
 Iteration  2 RMS(Cart)=  0.00026839 RMS(Int)=  0.00000000
 Iteration  3 RMS(Cart)=  0.00000000 RMS(Int)=  0.00000000
 ITry= 8 IFail=0 DXMaxC= 5.03D-02 DCOld= 1.00D+10 DXMaxT= 3.00D-01 DXLimC= 3.00D+00 Rises=F
 ClnCor:  largest displacement from symmetrization is 1.78D-15 for atom     2.
 Variable       Old X    -DE/DX   Delta X   Delta X   Delta X     New X
                                 (Linear)    (Quad)   (Total)
    R1       12.48652  -0.00075   0.00000   0.28978   0.08693  12.57346
    R2        1.86725  -0.00579   0.00000  -0.00428  -0.00128   1.86597
    A1        0.02445  -0.00001   0.00000  -0.07751  -0.02325   0.00120
         Item               Value     Threshold  Converged?
 Maximum Force            0.005792     0.000450     NO 
 RMS     Force            0.003372     0.000300     NO 
 Maximum Displacement     0.050306     0.001800     NO 
 RMS     Displacement     0.045307     0.001200     NO 
 Predicted change in Energy= 5.701642D-05
 GradGradGradGradGradGradGradGradGradGradGradGradGradGradGradGradGradGrad

                          Input orientation:                          
 ---------------------------------------------------------------------
 Center     Atomic      Atomic             Coordinates (Angstroms)
 Number     Number       Type             X           Y           Z
 ---------------------------------------------------------------------
      1          8           0       -1.441980   -0.083368   -3.649069
      2         17           0       -3.301954    2.408904    2.233046
      3          1           0       -1.719134    0.286516   -2.776497
 ---------------------------------------------------------------------
                    Distance matrix (angstroms):
                    1          2          3
     1  O    0.000000
     2  Cl   6.653586   0.000000
     3  H    0.987427   5.666160   0.000000
 This structure is nearly, but not quite of a higher symmetry.
 Consider Symm=Loose if the higher symmetry is desired.
 Stoichiometry    ClHO
 Framework group  C1[X(ClHO)]
 Deg. of freedom     3
 Full point group                 C1      NOp   1
 Omega: Change in point group or standard orientation.

 Old FWG=CS   [SG(Cl1H1O1)]
 New FWG=C01  [X(Cl1H1O1)]
 Largest Abelian subgroup         C1      NOp   1
 Largest concise Abelian subgroup C1      NOp   1
                         Standard orientation:                         
 ---------------------------------------------------------------------
 Center     Atomic      Atomic             Coordinates (Angstroms)
 Number     Number       Type             X           Y           Z
 ---------------------------------------------------------------------
      1          8           0       -0.843808    4.019889    1.544840
      2         17           0        0.435553   -2.074946   -0.797474
      3          1           0       -0.653944    3.114961    1.198331
 ---------------------------------------------------------------------
 Rotational constants (GHZ):   375931847.3562337           1.0137707           1.0137707
 Standard basis: SVP (5D, 7F)
 There are    39 symmetry adapted cartesian basis functions of A   symmetry.
 There are    37 symmetry adapted basis functions of A   symmetry.
    37 basis functions,    69 primitive gaussians,    39 cartesian basis functions
    13 alpha electrons       13 beta electrons
       nuclear repulsion energy        16.6914353990 Hartrees.
 NAtoms=    3 NActive=    3 NUniq=    3 SFac= 1.00D+00 NAtFMM=   60 NAOKFM=F Big=F
 Integral buffers will be    131072 words long.
 Raffenetti 2 integral format.
 Two-electron integral symmetry is turned on.
 Nuclear repulsion after empirical dispersion term =       16.6911630382 Hartrees.
 One-electron integrals computed using PRISM.
 NBasis=    37 RedAO= T EigKep=  5.66D-02  NBF=    37
 NBsUse=    37 1.00D-06 EigRej= -1.00D+00 NBFU=    37
 Initial guess from the checkpoint file:  "/tmp/Gau-7894.chk"
 B after Tr=    -0.000000    0.000000   -0.000000
         Rot=    0.704482   -0.061132   -0.679539   -0.195437 Ang= -90.42 deg.
 ExpMin= 1.22D-01 ExpMax= 1.04D+04 ExpMxC= 1.57D+03 IAcc=2 IRadAn=         4 AccDes= 0.00D+00
 Harris functional with IExCor=  402 and IRadAn=       4 diagonalized for initial guess.
 HarFok:  IExCor=  402 AccDes= 0.00D+00 IRadAn=         4 IDoV= 1 UseB2=F ITyADJ=14
 ICtDFT=  3500011 ScaDFX=  1.000000  1.000000  1.000000  1.000000
 FoFCou: FMM=F IPFlag=           0 FMFlag=      100000 FMFlg1=           0
         NFxFlg=           0 DoJE=T BraDBF=F KetDBF=T FulRan=T
         wScrn=  0.000000 ICntrl=       500 IOpCl=  0 I1Cent=   200000004 NGrid=           0
         NMat0=    1 NMatS0=      1 NMatT0=    0 NMatD0=    1 NMtDS0=    0 NMtDT0=    0
 Petite list used in FoFCou.
 Keep R1 ints in memory in canonical form, NReq=7151157.
 Requested convergence on RMS density matrix=1.00D-08 within 128 cycles.
 Requested convergence on MAX density matrix=1.00D-06.
 Requested convergence on             energy=1.00D-06.
 No special actions if energy rises.
 Integral accuracy reduced to 1.0D-05 until final iterations.
 Problem detected with inexpensive integrals.
 Switching to full accuracy and repeating last cycle.
 Rare condition: small coef for last iteration:  0.000D+00
 Rare condition: small coef for last iteration:  0.000D+00
 EnCoef did    35 forward-backward iterations
 EnCoef did   100 forward-backward iterations
 SCF Done:  E(RB3LYP) =  -535.578437133     A.U. after   69 cycles
            NFock= 69  Conv=0.73D-09     -V/T= 2.0026
 Calling FoFJK, ICntrl=      2127 FMM=F ISym2X=0 I1Cent= 0 IOpClX= 0 NMat=1 NMatS=1 NMatT=0.
 ***** Axes restored to original set *****
 -------------------------------------------------------------------
 Center     Atomic                   Forces (Hartrees/Bohr)
 Number     Number              X              Y              Z
 -------------------------------------------------------------------
      1        8          -0.001666370    0.002224721    0.005247665
      2       17           0.000204781   -0.000274354   -0.000647349
      3        1           0.001461589   -0.001950367   -0.004600316
 -------------------------------------------------------------------
 Cartesian Forces:  Max     0.005247665 RMS     0.002643724

 GradGradGradGradGradGradGradGradGradGradGradGradGradGradGradGradGradGrad
 Berny optimization.
 FormGI is forming the generalized inverse of G from B-inverse, IUseBI=4.
 Internal  Forces:  Max     0.005206062 RMS     0.003035312
 Search for a saddle point.
 Step number  34 out of a maximum of  100
 All quantities printed in internal units (Hartrees-Bohrs-Radians)
 Swapping is turned off.
 Update second derivatives using D2CorX and points   32   33   34
 The second derivative matrix:
                          R1        R2        A1
           R1           0.00334
           R2          -0.00110   0.46058
           A1           0.01315  -0.00433   0.04972
 ITU=  0  0  0  0
     Eigenvalues ---   -0.00013   0.05314   0.46063
 Eigenvectors required to have negative eigenvalues:
                          R1        A1        R2
   1                    0.96692  -0.25509  -0.00008
 RFO step:  Lambda0=6.474043809D-04 Lambda=-5.99132907D-05.
 Linear search not attempted -- option 19 set.
 Maximum step size (   0.300) exceeded in Quadratic search.
    -- Step size scaled by   0.328
 Iteration  1 RMS(Cart)=  0.08527673 RMS(Int)=  0.11200841
 Iteration  2 RMS(Cart)=  0.10602729 RMS(Int)=  0.07760142
 New curvilinear step failed, DQL= 3.17D-02 SP=-5.71D-01.
 ITry= 1 IFail=1 DXMaxC= 1.58D-01 DCOld= 1.00D+10 DXMaxT= 3.00D-01 DXLimC= 3.00D+00 Rises=F
 Iteration  1 RMS(Cart)=  0.08759498 RMS(Int)=  0.09262887
 Iteration  2 RMS(Cart)=  0.08844499 RMS(Int)=  0.06665923
 New curvilinear step failed, DQL= 3.24D-02 SP=-6.49D-01.
 ITry= 2 IFail=1 DXMaxC= 1.42D-01 DCOld= 1.00D+10 DXMaxT= 3.00D-01 DXLimC= 3.00D+00 Rises=F
 Iteration  1 RMS(Cart)=  0.08951914 RMS(Int)=  0.07483905
 Iteration  2 RMS(Cart)=  0.06628853 RMS(Int)=  0.05223459
 New curvilinear step failed, DQL= 3.99D-02 SP=-7.30D-01.
 ITry= 3 IFail=1 DXMaxC= 1.25D-01 DCOld= 1.00D+10 DXMaxT= 3.00D-01 DXLimC= 3.00D+00 Rises=F
 Iteration  1 RMS(Cart)=  0.09107186 RMS(Int)=  0.05991729
 Iteration  2 RMS(Cart)=  0.01179152 RMS(Int)=  0.05130793
 New curvilinear step failed, DQL= 3.31D-02 SP=-4.12D-01.
 ITry= 4 IFail=1 DXMaxC= 1.04D-01 DCOld= 1.00D+10 DXMaxT= 3.00D-01 DXLimC= 3.00D+00 Rises=F
 Iteration  1 RMS(Cart)=  0.07937263 RMS(Int)=  0.05084720
 New curvilinear step failed, DQL= 2.34D-02 SP=-7.84D-03.
 ITry= 5 IFail=1 DXMaxC= 8.81D-02 DCOld= 1.00D+10 DXMaxT= 3.00D-01 DXLimC= 3.00D+00 Rises=F
 Iteration  1 RMS(Cart)=  0.06628889 RMS(Int)=  0.04214762
 New curvilinear step failed, DQL= 1.91D-02 SP=-1.10D-02.
 ITry= 6 IFail=1 DXMaxC= 7.36D-02 DCOld= 1.00D+10 DXMaxT= 3.00D-01 DXLimC= 3.00D+00 Rises=F
 Iteration  1 RMS(Cart)=  0.05320222 RMS(Int)=  0.03344982
 New curvilinear step failed, DQL= 1.48D-02 SP=-1.54D-02.
 ITry= 7 IFail=1 DXMaxC= 5.90D-02 DCOld= 1.00D+10 DXMaxT= 3.00D-01 DXLimC= 3.00D+00 Rises=F
 Iteration  1 RMS(Cart)=  0.04011164 RMS(Int)=  0.02475431
 New curvilinear step failed, DQL= 1.06D-02 SP=-2.23D-02.
 ITry= 8 IFail=1 DXMaxC= 4.45D-02 DCOld= 1.00D+10 DXMaxT= 3.00D-01 DXLimC= 3.00D+00 Rises=F
 Iteration  1 RMS(Cart)=  0.02701423 RMS(Int)=  0.01606228
 New curvilinear step failed, DQL= 6.49D-03 SP=-3.54D-02.
 ITry= 9 IFail=1 DXMaxC= 3.00D-02 DCOld= 1.00D+10 DXMaxT= 3.00D-01 DXLimC= 3.00D+00 Rises=F
 Iteration  1 RMS(Cart)=  0.01389414 RMS(Int)=  0.00737875
 New curvilinear step failed, DQL= 2.47D-03 SP=-7.47D-02.
 ITry=10 IFail=1 DXMaxC= 1.54D-02 DCOld= 1.00D+10 DXMaxT= 3.00D-01 DXLimC= 3.00D+00 Rises=F
 RedQX1 iteration     1 Try  1 RMS(Cart)=  0.03027488 RMS(Int)=  0.14378049 XScale=  5.04812534
 RedQX1 iteration     1 Try  2 RMS(Cart)=  0.03317574 RMS(Int)=  0.11999471 XScale=  2.47183134
 RedQX1 iteration     1 Try  3 RMS(Cart)=  0.04146267 RMS(Int)=  0.11034078 XScale=  1.58706423
 RedQX1 iteration     1 Try  4 RMS(Cart)=  0.06798770 RMS(Int)=  0.13587304 XScale=  1.08464569
 RedQX1 iteration     1 Try  5 RMS(Cart)=  0.18812163 RMS(Int)=  0.26435147 XScale=  0.62349660
 RedQX1 iteration     2 Try  1 RMS(Cart)=  0.03762433 RMS(Int)=  0.16025059 XScale=  0.95834867
 RedQX1 iteration     3 Try  1 RMS(Cart)=  0.00752487 RMS(Int)=  0.14066424 XScale=  1.05779484
 RedQX1 iteration     3 Try  2 RMS(Cart)=  0.00813512 RMS(Int)=  0.14592614 XScale=  1.03017078
 RedQX1 iteration     3 Try  3 RMS(Cart)=  0.00882515 RMS(Int)=  0.15171420 XScale=  1.00168767
 RedQX1 iteration     3 Try  4 RMS(Cart)=  0.00960920 RMS(Int)=  0.15809394 XScale=  0.97225654
 RedQX1 iteration     4 Try  1 RMS(Cart)=  0.00845609 RMS(Int)=  0.15732600 XScale=  0.97573206
 RedQX1 iteration     5 Try  1 RMS(Cart)=  0.00169122 RMS(Int)=  0.15283370 XScale=  0.99643095
 RedQX1 iteration     6 Try  1 RMS(Cart)=  0.00033824 RMS(Int)=  0.15193798 XScale=  1.00063372
 RedQX1 iteration     6 Try  2 RMS(Cart)=  0.00033930 RMS(Int)=  0.15216256 XScale=  0.99957844
 RedQX1 iteration     6 Try  3 RMS(Cart)=  0.00034037 RMS(Int)=  0.15238794 XScale=  0.99852182
 RedQX1 iteration     7 Try  1 RMS(Cart)=  0.00033928 RMS(Int)=  0.15238722 XScale=  0.99852520
 RedQX1 iteration     8 Try  1 RMS(Cart)=  0.00006786 RMS(Int)=  0.15220749 XScale=  0.99936769
 RedQX1 iteration     8 Try  2 RMS(Cart)=  0.00006790 RMS(Int)=  0.15225244 XScale=  0.99915688
 RedQX1 iteration     8 Try  3 RMS(Cart)=  0.00006794 RMS(Int)=  0.15229744 XScale=  0.99894602
 RedQX1 iteration     9 Try  1 RMS(Cart)=  0.00006790 RMS(Int)=  0.15229741 XScale=  0.99894616
 RedQX1 iteration    10 Try  1 RMS(Cart)=  0.00001358 RMS(Int)=  0.15226144 XScale=  0.99911473
 RedQX1 iteration    10 Try  2 RMS(Cart)=  0.00001358 RMS(Int)=  0.15227043 XScale=  0.99907258
 RedQX1 iteration    10 Try  3 RMS(Cart)=  0.00001358 RMS(Int)=  0.15227943 XScale=  0.99903043
 RedQX1 iteration    10 Try  4 RMS(Cart)=  0.00001358 RMS(Int)=  0.15228842 XScale=  0.99898827
 RedQX1 iteration    11 Try  1 RMS(Cart)=  0.00001358 RMS(Int)=  0.15228842 XScale=  0.99898828
 RedQX1 iteration    12 Try  1 RMS(Cart)=  0.00000272 RMS(Int)=  0.15228122 XScale=  0.99902200
 RedQX1 iteration    12 Try  2 RMS(Cart)=  0.00000272 RMS(Int)=  0.15228302 XScale=  0.99901357
 RedQX1 iteration    12 Try  3 RMS(Cart)=  0.00000272 RMS(Int)=  0.15228482 XScale=  0.99900514
 RedQX1 iteration    12 Try  4 RMS(Cart)=  0.00000272 RMS(Int)=  0.15228662 XScale=  0.99899671
 RedQX1 iteration    13 Try  1 RMS(Cart)=  0.00000272 RMS(Int)=  0.15228662 XScale=  0.99899671
 RedQX1 iteration    14 Try  1 RMS(Cart)=  0.00000054 RMS(Int)=  0.15228518 XScale=  0.99900345
 RedQX1 iteration    14 Try  2 RMS(Cart)=  0.00000054 RMS(Int)=  0.15228554 XScale=  0.99900177
 RedQX1 iteration    14 Try  3 RMS(Cart)=  0.00000054 RMS(Int)=  0.15228590 XScale=  0.99900008
 RedQX1 iteration    14 Try  4 RMS(Cart)=  0.00000054 RMS(Int)=  0.15228626 XScale=  0.99899839
 RedQX1 iteration    15 Try  1 RMS(Cart)=  0.00000054 RMS(Int)=  0.15228626 XScale=  0.99899839
 RedQX1 iteration    16 Try  1 RMS(Cart)=  0.00000011 RMS(Int)=  0.15228597 XScale=  0.99899974
 RedQX1 iteration    17 Try  1 RMS(Cart)=  0.00000002 RMS(Int)=  0.15228592 XScale=  0.99900001
 B after Tr=    -8.466847    3.725709   -4.255115
         Rot=   -0.000000   -0.279476    0.374575    0.884074 Ang=-180.00 deg.
 Variable       Old X    -DE/DX   Delta X   Delta X   Delta X     New X
                                 (Linear)    (Quad)   (Total)
    R1       12.57346  -0.00073   0.00000   0.28967   0.23950  12.81296
    R2        1.86597  -0.00521   0.00000  -0.00374   0.02549   1.89145
    A1        0.00120  -0.00000   0.00000  -0.07794   0.17936   0.18055
         Item               Value     Threshold  Converged?
 Maximum Force            0.005206     0.000450     NO 
 RMS     Force            0.003035     0.000300     NO 
 Maximum Displacement     0.177671     0.001800     NO 
 RMS     Displacement     0.186619     0.001200     NO 
 Predicted change in Energy= 1.891950D-03
 GradGradGradGradGradGradGradGradGradGradGradGradGradGradGradGradGradGrad

                          Input orientation:                          
 ---------------------------------------------------------------------
 Center     Atomic      Atomic             Coordinates (Angstroms)
 Number     Number       Type             X           Y           Z
 ---------------------------------------------------------------------
      1          8           0       -1.347961   -0.099902   -3.658192
      2         17           0       -3.311526    2.440815    2.313574
      3          1           0       -1.803581    0.271138   -2.847902
 ---------------------------------------------------------------------
                    Distance matrix (angstroms):
                    1          2          3
     1  O    0.000000
     2  Cl   6.780326   0.000000
     3  H    1.000915   5.798468   0.000000
 Stoichiometry    ClHO
 Framework group  CS[SG(ClHO)]
 Deg. of freedom     3
 Full point group                 CS      NOp   2
 Omega: Change in point group or standard orientation.

 Old FWG=C01  [X(Cl1H1O1)]
 New FWG=CS   [SG(Cl1H1O1)]
 Largest Abelian subgroup         CS      NOp   2
 Largest concise Abelian subgroup C1      NOp   1
                         Standard orientation:                         
 ---------------------------------------------------------------------
 Center     Atomic      Atomic             Coordinates (Angstroms)
 Number     Number       Type             X           Y           Z
 ---------------------------------------------------------------------
      1          8           0        0.006913    4.471161    0.000000
      2         17           0        0.006913   -2.309165   -0.000000
      3          1           0       -0.172825    3.486517    0.000000
 ---------------------------------------------------------------------
 Rotational constants (GHZ):       16246.1505240           0.9759299           0.9758713
 Standard basis: SVP (5D, 7F)
 There are    29 symmetry adapted cartesian basis functions of A'  symmetry.
 There are    10 symmetry adapted cartesian basis functions of A"  symmetry.
 There are    27 symmetry adapted basis functions of A'  symmetry.
 There are    10 symmetry adapted basis functions of A"  symmetry.
    37 basis functions,    69 primitive gaussians,    39 cartesian basis functions
    13 alpha electrons       13 beta electrons
       nuclear repulsion energy        16.3952503299 Hartrees.
 NAtoms=    3 NActive=    3 NUniq=    3 SFac= 1.00D+00 NAtFMM=   60 NAOKFM=F Big=F
 Integral buffers will be    131072 words long.
 Raffenetti 2 integral format.
 Two-electron integral symmetry is turned on.
 Nuclear repulsion after empirical dispersion term =       16.3949812586 Hartrees.
 One-electron integrals computed using PRISM.
 NBasis=    37 RedAO= T EigKep=  5.81D-02  NBF=    27    10
 NBsUse=    37 1.00D-06 EigRej= -1.00D+00 NBFU=    27    10
 Initial guess from the checkpoint file:  "/tmp/Gau-7894.chk"
 B after Tr=     0.000000   -0.000000    0.000000
         Rot=    0.704681    0.060437    0.679601    0.194717 Ang=  90.39 deg.
 Initial guess orbital symmetries:
       Occupied  (A') (A') (A') (A') (A') (A") (A') (A') (A') (A")
                 (A') (A") (A')
       Virtual   (A') (A') (A') (A') (A') (A') (A") (?A) (?A) (A')
                 (A') (A') (A") (A') (A") (A') (A') (A") (A') (A")
                 (A') (A') (A") (A')
 ExpMin= 1.22D-01 ExpMax= 1.04D+04 ExpMxC= 1.57D+03 IAcc=2 IRadAn=         4 AccDes= 0.00D+00
 Harris functional with IExCor=  402 and IRadAn=       4 diagonalized for initial guess.
 HarFok:  IExCor=  402 AccDes= 0.00D+00 IRadAn=         4 IDoV= 1 UseB2=F ITyADJ=14
 ICtDFT=  3500011 ScaDFX=  1.000000  1.000000  1.000000  1.000000
 FoFCou: FMM=F IPFlag=           0 FMFlag=      100000 FMFlg1=           0
         NFxFlg=           0 DoJE=T BraDBF=F KetDBF=T FulRan=T
         wScrn=  0.000000 ICntrl=       500 IOpCl=  0 I1Cent=   200000004 NGrid=           0
         NMat0=    1 NMatS0=      1 NMatT0=    0 NMatD0=    1 NMtDS0=    0 NMtDT0=    0
 Petite list used in FoFCou.
 Keep R1 ints in memory in symmetry-blocked form, NReq=7153137.
 Requested convergence on RMS density matrix=1.00D-08 within 128 cycles.
 Requested convergence on MAX density matrix=1.00D-06.
 Requested convergence on             energy=1.00D-06.
 No special actions if energy rises.
 Integral accuracy reduced to 1.0D-05 until final iterations.
 An orbital has undefined symmetry, so N**3 symmetry is turned off.
 Density matrix breaks symmetry, PCut= 1.00D-04
 Density matrix has no symmetry -- integrals replicated.
 Problem detected with inexpensive integrals.
 Switching to full accuracy and repeating last cycle.
 >>>>>>>>>> Convergence criterion not met.
 SCF Done:  E(RB3LYP) =  -535.002022833     A.U. after  129 cycles
            NFock=128  Conv=0.58D-03     -V/T= 2.0003
 Convergence failure -- run terminated.
 Error termination via Lnk1e in /share/apps/g16.a03/g16/l502.exe at Thu Mar  6 16:39:58 2025.
 Job cpu time:       0 days  0 hours  7 minutes  1.1 seconds.
 Elapsed time:       0 days  0 hours  0 minutes 54.5 seconds.
 File lengths (MBytes):  RWF=      6 Int=      0 D2E=      0 Chk=      1 Scr=      1
