 Entering Gaussian System, Link 0=g16
 Input=ts.gjf
 Output=ts.log
 Initial command:
 /share/apps/g16.a03/g16/l1.exe "/tmp/Gau-31337.inp" -scrdir="/tmp/"
 Entering Link 1 = /share/apps/g16.a03/g16/l1.exe PID=     31339.
  
 Copyright (c) 1988,1990,1992,1993,1995,1998,2003,2009,2016,
            Gaussian, Inc.  All Rights Reserved.
  
 This is part of the Gaussian(R) 16 program.  It is based on
 the Gaussian(R) 09 system (copyright 2009, Gaussian, Inc.),
 the Gaussian(R) 03 system (copyright 2003, Gaussian, Inc.),
 the Gaussian(R) 98 system (copyright 1998, Gaussian, Inc.),
 the Gaussian(R) 94 system (copyright 1995, Gaussian, Inc.),
 the Gaussian 92(TM) system (copyright 1992, Gaussian, Inc.),
 the Gaussian 90(TM) system (copyright 1990, Gaussian, Inc.),
 the Gaussian 88(TM) system (copyright 1988, Gaussian, Inc.),
 the Gaussian 86(TM) system (copyright 1986, Carnegie Mellon
 University), and the Gaussian 82(TM) system (copyright 1983,
 Carnegie Mellon University). Gaussian is a federally registered
 trademark of Gaussian, Inc.
  
 This software contains proprietary and confidential information,
 including trade secrets, belonging to Gaussian, Inc.
  
 This software is provided under written license and may be
 used, copied, transmitted, or stored only in accord with that
 written license.
  
 The following legend is applicable only to US Government
 contracts under FAR:
  
                    RESTRICTED RIGHTS LEGEND
  
 Use, reproduction and disclosure by the US Government is
 subject to restrictions as set forth in subparagraphs (a)
 and (c) of the Commercial Computer Software - Restricted
 Rights clause in FAR 52.227-19.
  
 Gaussian, Inc.
 340 Quinnipiac St., Bldg. 40, Wallingford CT 06492
  
  
 ---------------------------------------------------------------
 Warning -- This program may not be used in any manner that
 competes with the business of Gaussian, Inc. or will provide
 assistance to any competitor of Gaussian, Inc.  The licensee
 of this program is prohibited from giving any competitor of
 Gaussian, Inc. access to this program.  By using this program,
 the user acknowledges that Gaussian, Inc. is engaged in the
 business of creating and licensing software in the field of
 computational chemistry and represents and warrants to the
 licensee that it is not a competitor of Gaussian, Inc. and that
 it will not use this program in any manner prohibited above.
 ---------------------------------------------------------------
  

 Cite this work as:
 Gaussian 16, Revision A.03,
 M. J. Frisch, G. W. Trucks, H. B. Schlegel, G. E. Scuseria, 
 M. A. Robb, J. R. Cheeseman, G. Scalmani, V. Barone, 
 G. A. Petersson, H. Nakatsuji, X. Li, M. Caricato, A. V. Marenich, 
 J. Bloino, B. G. Janesko, R. Gomperts, B. Mennucci, H. P. Hratchian, 
 J. V. Ortiz, A. F. Izmaylov, J. L. Sonnenberg, D. Williams-Young, 
 F. Ding, F. Lipparini, F. Egidi, J. Goings, B. Peng, A. Petrone, 
 T. Henderson, D. Ranasinghe, V. G. Zakrzewski, J. Gao, N. Rega, 
 G. Zheng, W. Liang, M. Hada, M. Ehara, K. Toyota, R. Fukuda, 
 J. Hasegawa, M. Ishida, T. Nakajima, Y. Honda, O. Kitao, H. Nakai, 
 T. Vreven, K. Throssell, J. A. Montgomery, Jr., J. E. Peralta, 
 F. Ogliaro, M. J. Bearpark, J. J. Heyd, E. N. Brothers, K. N. Kudin, 
 V. N. Staroverov, T. A. Keith, R. Kobayashi, J. Normand, 
 K. Raghavachari, A. P. Rendell, J. C. Burant, S. S. Iyengar, 
 J. Tomasi, M. Cossi, J. M. Millam, M. Klene, C. Adamo, R. Cammi, 
 J. W. Ochterski, R. L. Martin, K. Morokuma, O. Farkas, 
 J. B. Foresman, and D. J. Fox, Gaussian, Inc., Wallingford CT, 2016.
 
 ******************************************
 Gaussian 16:  EM64L-G16RevA.03 25-Dec-2016
                 6-Mar-2025 
 ******************************************
 %nproc=8
 Will use up to    8 processors via shared memory.
 %mem=4000MB
 --------------------------------------------------------------------
 #opt=(noeigen,calcfc,ts,recalc=5,maxcyc=200) freq B3LYP/SVP em=GD3BJ
 --------------------------------------------------------------------
 1/5=1,6=200,10=4,11=1,18=20,26=3,38=1,71=5/1,3;
 2/9=110,12=2,17=6,18=5,40=1/2;
 3/5=18,7=101,11=2,25=1,30=1,71=2,74=-5,124=41,140=1/1,2,3;
 4//1;
 5/5=2,38=5/2;
 8/6=4,10=90,11=11/1;
 11/6=1,8=1,9=11,15=111,16=1/1,2,10;
 10/6=1,13=1/2;
 6/7=2,8=2,9=2,10=2,28=1/1;
 7/10=1,18=20,25=1/1,2,3,16;
 1/5=1,6=200,10=4,11=1,18=20,26=3,71=5/3(2);
 2/9=110/2;
 99//99;
 2/9=110/2;
 3/5=18,7=101,11=2,25=1,30=1,71=1,74=-5,124=41/1,2,3;
 4/5=5,16=3,69=1/1;
 5/5=2,38=5/2;
 7//1,2,3,16;
 1/5=1,6=200,11=1,18=20,26=3,71=5/3(-5);
 2/9=110/2;
 6/7=2,8=2,9=2,10=2,19=2,28=1/1;
 99/9=1/99;
 ----------
 ts-244.gjf
 ----------
 Symbolic Z-matrix:
 Charge =  0 Multiplicity = 1
 O                    -1.14564   1.7943    0.47837 
 Cl                   -2.49806   2.71255   0.33879 
 H                    -0.87077   1.44244   1.33299 
 

 GradGradGradGradGradGradGradGradGradGradGradGradGradGradGradGradGradGrad
 Berny optimization.
 Initialization pass.
                           ----------------------------
                           !    Initial Parameters    !
                           ! (Angstroms and Degrees)  !
 --------------------------                            --------------------------
 ! Name  Definition              Value          Derivative Info.                !
 --------------------------------------------------------------------------------
 ! R1    R(1,2)                  1.6406         calculate D2E/DX2 analytically  !
 ! R2    R(1,3)                  0.9642         calculate D2E/DX2 analytically  !
 ! A1    A(2,1,3)              120.9726         calculate D2E/DX2 analytically  !
 --------------------------------------------------------------------------------
 Trust Radius=3.00D-01 FncErr=1.00D-07 GrdErr=1.00D-06 EigMax=2.50D+02 EigMin=1.00D-04
 Number of steps in this run=    100 maximum allowed number of steps=    100.
 Search for a saddle point of order  1.
 GradGradGradGradGradGradGradGradGradGradGradGradGradGradGradGradGradGrad

                          Input orientation:                          
 ---------------------------------------------------------------------
 Center     Atomic      Atomic             Coordinates (Angstroms)
 Number     Number       Type             X           Y           Z
 ---------------------------------------------------------------------
      1          8           0       -1.145643    1.794300    0.478369
      2         17           0       -2.498065    2.712555    0.338795
      3          1           0       -0.870774    1.442443    1.332986
 ---------------------------------------------------------------------
                    Distance matrix (angstroms):
                    1          2          3
     1  O    0.000000
     2  Cl   1.640646   0.000000
     3  H    0.964223   2.291217   0.000000
 Stoichiometry    ClHO
 Framework group  CS[SG(ClHO)]
 Deg. of freedom     3
 Full point group                 CS      NOp   2
 Largest Abelian subgroup         CS      NOp   2
 Largest concise Abelian subgroup C1      NOp   1
                         Standard orientation:                         
 ---------------------------------------------------------------------
 Center     Atomic      Atomic             Coordinates (Angstroms)
 Number     Number       Type             X           Y           Z
 ---------------------------------------------------------------------
      1          8           0        0.031798    1.053645   -0.000000
      2         17           0        0.031798   -0.587001    0.000000
      3          1           0       -0.794940    1.549861   -0.000000
 ---------------------------------------------------------------------
 Rotational constants (GHZ):         815.4276294          15.6964558          15.4000155
 Standard basis: SVP (5D, 7F)
 There are    29 symmetry adapted cartesian basis functions of A'  symmetry.
 There are    10 symmetry adapted cartesian basis functions of A"  symmetry.
 There are    27 symmetry adapted basis functions of A'  symmetry.
 There are    10 symmetry adapted basis functions of A"  symmetry.
    37 basis functions,    69 primitive gaussians,    39 cartesian basis functions
    13 alpha electrons       13 beta electrons
       nuclear repulsion energy        52.1825232227 Hartrees.
 NAtoms=    3 NActive=    3 NUniq=    3 SFac= 1.00D+00 NAtFMM=   60 NAOKFM=F Big=F
 Integral buffers will be    131072 words long.
 Raffenetti 2 integral format.
 Two-electron integral symmetry is turned on.
 Nuclear repulsion after empirical dispersion term =       52.1809183645 Hartrees.
 One-electron integrals computed using PRISM.
 NBasis=    37 RedAO= T EigKep=  3.29D-02  NBF=    27    10
 NBsUse=    37 1.00D-06 EigRej= -1.00D+00 NBFU=    27    10
 ExpMin= 1.22D-01 ExpMax= 1.04D+04 ExpMxC= 1.57D+03 IAcc=3 IRadAn=         5 AccDes= 0.00D+00
 Harris functional with IExCor=  402 and IRadAn=       5 diagonalized for initial guess.
 HarFok:  IExCor=  402 AccDes= 0.00D+00 IRadAn=         5 IDoV= 1 UseB2=F ITyADJ=14
 ICtDFT=  3500011 ScaDFX=  1.000000  1.000000  1.000000  1.000000
 FoFCou: FMM=F IPFlag=           0 FMFlag=      100000 FMFlg1=           0
         NFxFlg=           0 DoJE=T BraDBF=F KetDBF=T FulRan=T
         wScrn=  0.000000 ICntrl=       500 IOpCl=  0 I1Cent=   200000004 NGrid=           0
         NMat0=    1 NMatS0=      1 NMatT0=    0 NMatD0=    1 NMtDS0=    0 NMtDT0=    0
 Petite list used in FoFCou.
 Initial guess orbital symmetries:
       Occupied  (A') (A') (A') (A') (A') (A") (A') (A') (A') (A')
                 (A") (A') (A")
       Virtual   (A') (A') (A') (A') (A') (A") (A') (A') (A") (A')
                 (A") (A') (A") (A') (A') (A') (A") (A') (A') (A")
                 (A') (A") (A') (A')
 The electronic state of the initial guess is 1-A'.
 Keep R1 ints in memory in symmetry-blocked form, NReq=7153137.
 Requested convergence on RMS density matrix=1.00D-08 within 128 cycles.
 Requested convergence on MAX density matrix=1.00D-06.
 Requested convergence on             energy=1.00D-06.
 No special actions if energy rises.
 Integral accuracy reduced to 1.0D-05 until final iterations.
 Initial convergence to 1.0D-05 achieved.  Increase integral accuracy.
 SCF Done:  E(RB3LYP) =  -535.750244390     A.U. after   11 cycles
            NFock= 11  Conv=0.90D-08     -V/T= 2.0024
 DoSCS=F DFT=T ScalE2(SS,OS)=  1.000000  1.000000
 Range of M.O.s used for correlation:     1    37
 NBasis=    37 NAE=    13 NBE=    13 NFC=     0 NFV=     0
 NROrb=     37 NOA=    13 NOB=    13 NVA=    24 NVB=    24
 Symmetrizing basis deriv contribution to polar:
 IMax=3 JMax=2 DiffMx= 0.00D+00
 G2DrvN: will do     4 centers at a time, making    1 passes.
 Calling FoFCou, ICntrl=  3107 FMM=F I1Cent=   0 AccDes= 0.00D+00.
 End of G2Drv F.D. properties file   721 does not exist.
 End of G2Drv F.D. properties file   722 does not exist.
 End of G2Drv F.D. properties file   788 does not exist.
          IDoAtm=111
          Differentiating once with respect to nuclear coordinates.
 Keep R1 ints in memory in symmetry-blocked form, NReq=7127942.
          There are    12 degrees of freedom in the 1st order CPHF.  IDoFFX=6 NUNeed=     0.
      6 vectors produced by pass  0 Test12= 2.60D-15 8.33D-09 XBig12= 8.03D-02 2.05D-01.
 AX will form     6 AO Fock derivatives at one time.
      6 vectors produced by pass  1 Test12= 2.60D-15 8.33D-09 XBig12= 1.21D-02 5.43D-02.
      6 vectors produced by pass  2 Test12= 2.60D-15 8.33D-09 XBig12= 4.32D-04 6.57D-03.
      6 vectors produced by pass  3 Test12= 2.60D-15 8.33D-09 XBig12= 1.51D-05 1.32D-03.
      6 vectors produced by pass  4 Test12= 2.60D-15 8.33D-09 XBig12= 1.04D-07 9.53D-05.
      6 vectors produced by pass  5 Test12= 2.60D-15 8.33D-09 XBig12= 6.24D-10 9.24D-06.
      3 vectors produced by pass  6 Test12= 2.60D-15 8.33D-09 XBig12= 7.57D-13 3.08D-07.
 InvSVY:  IOpt=1 It=  1 EMax= 2.22D-16
 Solved reduced A of dimension    39 with     6 vectors.
 End of Minotr F.D. properties file   721 does not exist.
 End of Minotr F.D. properties file   722 does not exist.
 End of Minotr F.D. properties file   788 does not exist.

 **********************************************************************

            Population analysis using the SCF density.

 **********************************************************************

 Orbital symmetries:
       Occupied  (A') (A') (A') (A') (A') (A") (A') (A') (A') (A')
                 (A") (A') (A")
       Virtual   (A') (A') (A') (A') (A') (A") (A') (A') (A") (A')
                 (A") (A') (A") (A') (A') (A') (A") (A') (A') (A")
                 (A') (A") (A') (A')
 The electronic state is 1-A'.
 Alpha  occ. eigenvalues -- -101.53982 -19.17847  -9.49232  -7.26592  -7.24917
 Alpha  occ. eigenvalues --   -7.24875  -1.05599  -0.79239  -0.54101  -0.42143
 Alpha  occ. eigenvalues --   -0.40592  -0.29748  -0.26651
 Alpha virt. eigenvalues --   -0.04658   0.07549   0.43683   0.54432   0.70139
 Alpha virt. eigenvalues --    0.70270   0.74231   0.76211   0.76257   0.84790
 Alpha virt. eigenvalues --    0.85176   0.95536   0.99453   1.08482   1.15980
 Alpha virt. eigenvalues --    1.23245   1.45024   1.67629   2.17954   2.63562
 Alpha virt. eigenvalues --    2.77819   2.92531   3.06936   3.63870
          Condensed to atoms (all electrons):
               1          2          3
     1  O    7.938701   0.094306   0.316421
     2  Cl   0.094306  16.791953  -0.022741
     3  H    0.316421  -0.022741   0.493375
 Mulliken charges:
               1
     1  O   -0.349427
     2  Cl   0.136482
     3  H    0.212945
 Sum of Mulliken charges =  -0.00000
 Mulliken charges with hydrogens summed into heavy atoms:
               1
     1  O   -0.136482
     2  Cl   0.136482
 APT charges:
               1
     1  O   -0.668489
     2  Cl   0.136657
     3  H    0.531832
 Sum of APT charges =  -0.00000
 APT charges with hydrogens summed into heavy atoms:
               1
     1  O   -0.136657
     2  Cl   0.136657
 Electronic spatial extent (au):  <R**2>=            101.1016
 Charge=             -0.0000 electrons
 Dipole moment (field-independent basis, Debye):
    X=             -1.5773    Y=              0.3868    Z=             -0.0000  Tot=              1.6240
 Quadrupole moment (field-independent basis, Debye-Ang):
   XX=            -16.9202   YY=            -15.0756   ZZ=            -18.5005
   XY=             -2.8581   XZ=              0.0000   YZ=              0.0000
 Traceless Quadrupole moment (field-independent basis, Debye-Ang):
   XX=             -0.0881   YY=              1.7565   ZZ=             -1.6684
   XY=             -2.8581   XZ=              0.0000   YZ=              0.0000
 Octapole moment (field-independent basis, Debye-Ang**2):
  XXX=             -1.6356  YYY=              3.6605  ZZZ=             -0.0000  XYY=             -4.2574
  XXY=              2.9348  XXZ=             -0.0000  XZZ=             -0.2295  YZZ=              0.7341
  YYZ=             -0.0000  XYZ=              0.0000
 Hexadecapole moment (field-independent basis, Debye-Ang**3):
 XXXX=            -16.9311 YYYY=            -67.6940 ZZZZ=            -16.5062 XXXY=             -0.1697
 XXXZ=              0.0000 YYYX=             -5.5090 YYYZ=              0.0000 ZZZX=             -0.0000
 ZZZY=              0.0000 XXYY=            -13.8713 XXZZ=             -5.7389 YYZZ=            -17.1282
 XXYZ=              0.0000 YYXZ=              0.0000 ZZXY=              0.4780
 N-N= 5.218091836453D+01 E-N=-1.377455790461D+03  KE= 5.344737047966D+02
 Symmetry A'   KE= 4.837157379738D+02
 Symmetry A"   KE= 5.075796682279D+01
  Exact polarizability:   0.000   0.000   0.000   0.000   0.000   0.000
 Approx polarizability:  13.285  -2.400  30.822   0.000  -0.000  10.261
 Calling FoFJK, ICntrl=    100147 FMM=F ISym2X=1 I1Cent= 0 IOpClX= 0 NMat=1 NMatS=1 NMatT=0.
 ***** Axes restored to original set *****
 -------------------------------------------------------------------
 Center     Atomic                   Forces (Hartrees/Bohr)
 Number     Number              X              Y              Z
 -------------------------------------------------------------------
      1        8           0.043010512   -0.022329830   -0.029930909
      2       17          -0.024117055    0.013295475    0.012909557
      3        1          -0.018893457    0.009034355    0.017021352
 -------------------------------------------------------------------
 Cartesian Forces:  Max     0.043010512 RMS     0.023327981
 FormGI is forming the generalized inverse of G from B-inverse, IUseBI=4.

 GradGradGradGradGradGradGradGradGradGradGradGradGradGradGradGradGradGrad
 Berny optimization.
 Internal  Forces:  Max     0.047769339 RMS     0.031678505
 Search for a saddle point.
 Step number   1 out of a maximum of  100
 All quantities printed in internal units (Hartrees-Bohrs-Radians)
 Swapping is turned off.
 Second derivative matrix not updated -- analytic derivatives used.
 The second derivative matrix:
                          R1        R2        A1
           R1           0.32588
           R2          -0.01186   0.52977
           A1           0.04326   0.00369   0.14405
 ITU=  0
     Eigenvalues ---    0.13419   0.33505   0.53046
 Eigenvectors required to have negative eigenvalues:
                          A1        R1        R2
   1                   -0.97514   0.22103   0.01572
 RFO step:  Lambda0=1.522753676D-01 Lambda=-7.39451229D-04.
 Linear search not attempted -- option 19 set.
 Iteration  1 RMS(Cart)=  0.04633681 RMS(Int)=  0.00083233
 Iteration  2 RMS(Cart)=  0.00062132 RMS(Int)=  0.00000015
 Iteration  3 RMS(Cart)=  0.00000018 RMS(Int)=  0.00000000
 ClnCor:  largest displacement from symmetrization is 2.75D-15 for atom     3.
 Variable       Old X    -DE/DX   Delta X   Delta X   Delta X     New X
                                 (Linear)    (Quad)   (Total)
    R1        3.10037   0.02622   0.00000   0.03359   0.03359   3.13396
    R2        1.82212   0.00640   0.00000   0.01070   0.01070   1.83281
    A1        2.11137  -0.04777   0.00000   0.05540   0.05540   2.16677
         Item               Value     Threshold  Converged?
 Maximum Force            0.047769     0.000450     NO 
 RMS     Force            0.031679     0.000300     NO 
 Maximum Displacement     0.044527     0.001800     NO 
 RMS     Displacement     0.046252     0.001200     NO 
 Predicted change in Energy= 2.210694D-03
 GradGradGradGradGradGradGradGradGradGradGradGradGradGradGradGradGradGrad

                          Input orientation:                          
 ---------------------------------------------------------------------
 Center     Atomic      Atomic             Coordinates (Angstroms)
 Number     Number       Type             X           Y           Z
 ---------------------------------------------------------------------
      1          8           0       -1.152555    1.796085    0.492197
      2         17           0       -2.514715    2.726745    0.322652
      3          1           0       -0.847212    1.426468    1.335300
 ---------------------------------------------------------------------
                    Distance matrix (angstroms):
                    1          2          3
     1  O    0.000000
     2  Cl   1.658419   0.000000
     3  H    0.969883   2.344513   0.000000
 Stoichiometry    ClHO
 Framework group  CS[SG(ClHO)]
 Deg. of freedom     3
 Full point group                 CS      NOp   2
 Largest Abelian subgroup         CS      NOp   2
 Largest concise Abelian subgroup C1      NOp   1
                         Standard orientation:                         
 ---------------------------------------------------------------------
 Center     Atomic      Atomic             Coordinates (Angstroms)
 Number     Number       Type             X           Y           Z
 ---------------------------------------------------------------------
      1          8           0        0.030872    1.063412   -0.000000
      2         17           0        0.030872   -0.595007    0.000000
      3          1           0       -0.771806    1.607821   -0.000000
 ---------------------------------------------------------------------
 Rotational constants (GHZ):         868.6879832          15.2973743          15.0326531
 Standard basis: SVP (5D, 7F)
 There are    29 symmetry adapted cartesian basis functions of A'  symmetry.
 There are    10 symmetry adapted cartesian basis functions of A"  symmetry.
 There are    27 symmetry adapted basis functions of A'  symmetry.
 There are    10 symmetry adapted basis functions of A"  symmetry.
    37 basis functions,    69 primitive gaussians,    39 cartesian basis functions
    13 alpha electrons       13 beta electrons
       nuclear repulsion energy        51.5975423556 Hartrees.
 NAtoms=    3 NActive=    3 NUniq=    3 SFac= 1.00D+00 NAtFMM=   60 NAOKFM=F Big=F
 Integral buffers will be    131072 words long.
 Raffenetti 2 integral format.
 Two-electron integral symmetry is turned on.
 Nuclear repulsion after empirical dispersion term =       51.5959435044 Hartrees.
 One-electron integrals computed using PRISM.
 NBasis=    37 RedAO= T EigKep=  3.46D-02  NBF=    27    10
 NBsUse=    37 1.00D-06 EigRej= -1.00D+00 NBFU=    27    10
 Initial guess from the checkpoint file:  "/tmp/Gau-31339.chk"
 B after Tr=     0.000000    0.000000   -0.000000
         Rot=    0.999997    0.000000   -0.000000    0.002363 Ang=   0.27 deg.
 Initial guess orbital symmetries:
       Occupied  (A') (A') (A') (A') (A') (A") (A') (A') (A') (A')
                 (A") (A') (A")
       Virtual   (A') (A') (A') (A') (A') (A") (A') (A') (A") (A')
                 (A") (A') (A") (A') (A') (A') (A") (A') (A') (A")
                 (A') (A") (A') (A')
 ExpMin= 1.22D-01 ExpMax= 1.04D+04 ExpMxC= 1.57D+03 IAcc=2 IRadAn=         4 AccDes= 0.00D+00
 Harris functional with IExCor=  402 and IRadAn=       4 diagonalized for initial guess.
 HarFok:  IExCor=  402 AccDes= 0.00D+00 IRadAn=         4 IDoV= 1 UseB2=F ITyADJ=14
 ICtDFT=  3500011 ScaDFX=  1.000000  1.000000  1.000000  1.000000
 FoFCou: FMM=F IPFlag=           0 FMFlag=      100000 FMFlg1=           0
         NFxFlg=           0 DoJE=T BraDBF=F KetDBF=T FulRan=T
         wScrn=  0.000000 ICntrl=       500 IOpCl=  0 I1Cent=   200000004 NGrid=           0
         NMat0=    1 NMatS0=      1 NMatT0=    0 NMatD0=    1 NMtDS0=    0 NMtDT0=    0
 Petite list used in FoFCou.
 Keep R1 ints in memory in symmetry-blocked form, NReq=7153137.
 Requested convergence on RMS density matrix=1.00D-08 within 128 cycles.
 Requested convergence on MAX density matrix=1.00D-06.
 Requested convergence on             energy=1.00D-06.
 No special actions if energy rises.
 Integral accuracy reduced to 1.0D-05 until final iterations.
 Initial convergence to 1.0D-05 achieved.  Increase integral accuracy.
 SCF Done:  E(RB3LYP) =  -535.748051468     A.U. after   11 cycles
            NFock= 11  Conv=0.31D-08     -V/T= 2.0025
 Calling FoFJK, ICntrl=      2127 FMM=F ISym2X=1 I1Cent= 0 IOpClX= 0 NMat=1 NMatS=1 NMatT=0.
 ***** Axes restored to original set *****
 -------------------------------------------------------------------
 Center     Atomic                   Forces (Hartrees/Bohr)
 Number     Number              X              Y              Z
 -------------------------------------------------------------------
      1        8           0.038333913   -0.018900776   -0.031682607
      2       17          -0.014525171    0.006290172    0.016363246
      3        1          -0.023808742    0.012610604    0.015319361
 -------------------------------------------------------------------
 Cartesian Forces:  Max     0.038333913 RMS     0.021881968

 GradGradGradGradGradGradGradGradGradGradGradGradGradGradGradGradGradGrad
 Berny optimization.
 FormGI is forming the generalized inverse of G from B-inverse, IUseBI=4.
 Internal  Forces:  Max     0.056774706 RMS     0.033736668
 Search for a saddle point.
 Step number   2 out of a maximum of  100
 All quantities printed in internal units (Hartrees-Bohrs-Radians)
 Swapping is turned off.
 Update second derivatives using D2CorX and points    1    2
 The second derivative matrix:
                          R1        R2        A1
           R1           0.31498
           R2          -0.01317   0.52964
           A1           0.03606   0.00298   0.14011
 ITU=  0  0
     Eigenvalues ---    0.13289   0.32140   0.53045
 Eigenvectors required to have negative eigenvalues:
                          A1        R1        R2
   1                   -0.98066   0.19523   0.01385
 RFO step:  Lambda0=1.548978426D-01 Lambda=-1.86021454D-05.
 Linear search not attempted -- option 19 set.
 Iteration  1 RMS(Cart)=  0.00736421 RMS(Int)=  0.00002092
 Iteration  2 RMS(Cart)=  0.00001616 RMS(Int)=  0.00000000
 Iteration  3 RMS(Cart)=  0.00000000 RMS(Int)=  0.00000000
 ClnCor:  largest displacement from symmetrization is 2.05D-15 for atom     3.
 Variable       Old X    -DE/DX   Delta X   Delta X   Delta X     New X
                                 (Linear)    (Quad)   (Total)
    R1        3.13396   0.01379   0.00000   0.00595   0.00595   3.13991
    R2        1.83281   0.00102   0.00000   0.00046   0.00046   1.83328
    A1        2.16677  -0.05677   0.00000   0.00895   0.00895   2.17572
         Item               Value     Threshold  Converged?
 Maximum Force            0.056775     0.000450     NO 
 RMS     Force            0.033737     0.000300     NO 
 Maximum Displacement     0.006882     0.001800     NO 
 RMS     Displacement     0.007360     0.001200     NO 
 Predicted change in Energy= 4.386465D-04
 GradGradGradGradGradGradGradGradGradGradGradGradGradGradGradGradGradGrad

                          Input orientation:                          
 ---------------------------------------------------------------------
 Center     Atomic      Atomic             Coordinates (Angstroms)
 Number     Number       Type             X           Y           Z
 ---------------------------------------------------------------------
      1          8           0       -1.153518    1.796210    0.494745
      2         17           0       -2.517394    2.729024    0.320072
      3          1           0       -0.843570    1.424064    1.335332
 ---------------------------------------------------------------------
                    Distance matrix (angstroms):
                    1          2          3
     1  O    0.000000
     2  Cl   1.661569   0.000000
     3  H    0.970128   2.352735   0.000000
 Stoichiometry    ClHO
 Framework group  CS[SG(ClHO)]
 Deg. of freedom     3
 Full point group                 CS      NOp   2
 Largest Abelian subgroup         CS      NOp   2
 Largest concise Abelian subgroup C1      NOp   1
                         Standard orientation:                         
 ---------------------------------------------------------------------
 Center     Atomic      Atomic             Coordinates (Angstroms)
 Number     Number       Type             X           Y           Z
 ---------------------------------------------------------------------
      1          8           0        0.030691    1.065191   -0.000000
      2         17           0        0.030691   -0.596378    0.000000
      3          1           0       -0.767284    1.616900   -0.000000
 ---------------------------------------------------------------------
 Rotational constants (GHZ):         879.4980701          15.2300482          14.9708026
 Standard basis: SVP (5D, 7F)
 There are    29 symmetry adapted cartesian basis functions of A'  symmetry.
 There are    10 symmetry adapted cartesian basis functions of A"  symmetry.
 There are    27 symmetry adapted basis functions of A'  symmetry.
 There are    10 symmetry adapted basis functions of A"  symmetry.
    37 basis functions,    69 primitive gaussians,    39 cartesian basis functions
    13 alpha electrons       13 beta electrons
       nuclear repulsion energy        51.5007592275 Hartrees.
 NAtoms=    3 NActive=    3 NUniq=    3 SFac= 1.00D+00 NAtFMM=   60 NAOKFM=F Big=F
 Integral buffers will be    131072 words long.
 Raffenetti 2 integral format.
 Two-electron integral symmetry is turned on.
 Nuclear repulsion after empirical dispersion term =       51.4991613849 Hartrees.
 One-electron integrals computed using PRISM.
 NBasis=    37 RedAO= T EigKep=  3.49D-02  NBF=    27    10
 NBsUse=    37 1.00D-06 EigRej= -1.00D+00 NBFU=    27    10
 Initial guess from the checkpoint file:  "/tmp/Gau-31339.chk"
 B after Tr=    -0.000000   -0.000000    0.000000
         Rot=    1.000000   -0.000000   -0.000000    0.000405 Ang=   0.05 deg.
 Initial guess orbital symmetries:
       Occupied  (A') (A') (A') (A') (A') (A") (A') (A') (A') (A')
                 (A") (A') (A")
       Virtual   (A') (A') (A') (A') (A') (A") (A') (A') (A") (A')
                 (A") (A') (A") (A') (A') (A') (A") (A') (A') (A")
                 (A') (A") (A') (A')
 Keep R1 ints in memory in symmetry-blocked form, NReq=7153137.
 Requested convergence on RMS density matrix=1.00D-08 within 128 cycles.
 Requested convergence on MAX density matrix=1.00D-06.
 Requested convergence on             energy=1.00D-06.
 No special actions if energy rises.
 SCF Done:  E(RB3LYP) =  -535.747613651     A.U. after    8 cycles
            NFock=  8  Conv=0.52D-08     -V/T= 2.0025
 Calling FoFJK, ICntrl=      2127 FMM=F ISym2X=1 I1Cent= 0 IOpClX= 0 NMat=1 NMatS=1 NMatT=0.
 ***** Axes restored to original set *****
 -------------------------------------------------------------------
 Center     Atomic                   Forces (Hartrees/Bohr)
 Number     Number              X              Y              Z
 -------------------------------------------------------------------
      1        8           0.037355094   -0.018076864   -0.032580338
      2       17          -0.012964777    0.005149668    0.016929546
      3        1          -0.024390317    0.012927196    0.015650791
 -------------------------------------------------------------------
 Cartesian Forces:  Max     0.037355094 RMS     0.021786376

 GradGradGradGradGradGradGradGradGradGradGradGradGradGradGradGradGradGrad
 Berny optimization.
 FormGI is forming the generalized inverse of G from B-inverse, IUseBI=4.
 Internal  Forces:  Max     0.058156239 RMS     0.034258529
 Search for a saddle point.
 Step number   3 out of a maximum of  100
 All quantities printed in internal units (Hartrees-Bohrs-Radians)
 Swapping is turned off.
 Update second derivatives using D2CorX and points    1    2    3
 The second derivative matrix:
                          R1        R2        A1
           R1           0.30120
           R2          -0.01219   0.52961
           A1           0.02757   0.00379   0.13585
 ITU=  0  0  0
     Eigenvalues ---    0.13129   0.30510   0.53028
 Eigenvectors required to have negative eigenvalues:
                          A1        R1        R2
   1                   -0.98683   0.16115   0.01431
 RFO step:  Lambda0=1.541091884D-01 Lambda=-1.62233850D-05.
 Linear search not attempted -- option 19 set.
 Iteration  1 RMS(Cart)=  0.00694113 RMS(Int)=  0.00001802
 Iteration  2 RMS(Cart)=  0.00001408 RMS(Int)=  0.00000000
 Iteration  3 RMS(Cart)=  0.00000000 RMS(Int)=  0.00000000
 ClnCor:  largest displacement from symmetrization is 2.64D-15 for atom     3.
 Variable       Old X    -DE/DX   Delta X   Delta X   Delta X     New X
                                 (Linear)    (Quad)   (Total)
    R1        3.13991   0.01175   0.00000   0.00602   0.00602   3.14593
    R2        1.83328   0.00081   0.00000  -0.00002  -0.00002   1.83326
    A1        2.17572  -0.05816   0.00000   0.00837   0.00837   2.18408
         Item               Value     Threshold  Converged?
 Maximum Force            0.058156     0.000450     NO 
 RMS     Force            0.034259     0.000300     NO 
 Maximum Displacement     0.006382     0.001800     NO 
 RMS     Displacement     0.006937     0.001200     NO 
 Predicted change in Energy= 4.274936D-04
 GradGradGradGradGradGradGradGradGradGradGradGradGradGradGradGradGradGrad

                          Input orientation:                          
 ---------------------------------------------------------------------
 Center     Atomic      Atomic             Coordinates (Angstroms)
 Number     Number       Type             X           Y           Z
 ---------------------------------------------------------------------
      1          8           0       -1.154322    1.796240    0.497240
      2         17           0       -2.519968    2.731204    0.317645
      3          1           0       -0.840192    1.421854    1.335264
 ---------------------------------------------------------------------
                    Distance matrix (angstroms):
                    1          2          3
     1  O    0.000000
     2  Cl   1.664753   0.000000
     3  H    0.970117   2.360422   0.000000
 Stoichiometry    ClHO
 Framework group  CS[SG(ClHO)]
 Deg. of freedom     3
 Full point group                 CS      NOp   2
 Largest Abelian subgroup         CS      NOp   2
 Largest concise Abelian subgroup C1      NOp   1
                         Standard orientation:                         
 ---------------------------------------------------------------------
 Center     Atomic      Atomic             Coordinates (Angstroms)
 Number     Number       Type             X           Y           Z
 ---------------------------------------------------------------------
      1          8           0        0.030512    1.067017    0.000000
      2         17           0        0.030512   -0.597736   -0.000000
      3          1           0       -0.762810    1.625377    0.000000
 ---------------------------------------------------------------------
 Rotational constants (GHZ):         890.3325163          15.1635411          14.9096107
 Standard basis: SVP (5D, 7F)
 There are    29 symmetry adapted cartesian basis functions of A'  symmetry.
 There are    10 symmetry adapted cartesian basis functions of A"  symmetry.
 There are    27 symmetry adapted basis functions of A'  symmetry.
 There are    10 symmetry adapted basis functions of A"  symmetry.
    37 basis functions,    69 primitive gaussians,    39 cartesian basis functions
    13 alpha electrons       13 beta electrons
       nuclear repulsion energy        51.4055115716 Hartrees.
 NAtoms=    3 NActive=    3 NUniq=    3 SFac= 1.00D+00 NAtFMM=   60 NAOKFM=F Big=F
 Integral buffers will be    131072 words long.
 Raffenetti 2 integral format.
 Two-electron integral symmetry is turned on.
 Nuclear repulsion after empirical dispersion term =       51.4039146959 Hartrees.
 One-electron integrals computed using PRISM.
 NBasis=    37 RedAO= T EigKep=  3.52D-02  NBF=    27    10
 NBsUse=    37 1.00D-06 EigRej= -1.00D+00 NBFU=    27    10
 Initial guess from the checkpoint file:  "/tmp/Gau-31339.chk"
 B after Tr=     0.000000    0.000000    0.000000
         Rot=    1.000000   -0.000000    0.000000    0.000388 Ang=   0.04 deg.
 Initial guess orbital symmetries:
       Occupied  (A') (A') (A') (A') (A') (A") (A') (A') (A') (A')
                 (A") (A') (A")
       Virtual   (A') (A') (A') (A') (A') (A") (A') (A') (A") (A')
                 (A") (A') (A") (A') (A') (A') (A") (A') (A') (A")
                 (A') (A") (A') (A')
 Keep R1 ints in memory in symmetry-blocked form, NReq=7153137.
 Requested convergence on RMS density matrix=1.00D-08 within 128 cycles.
 Requested convergence on MAX density matrix=1.00D-06.
 Requested convergence on             energy=1.00D-06.
 No special actions if energy rises.
 SCF Done:  E(RB3LYP) =  -535.747186358     A.U. after    8 cycles
            NFock=  8  Conv=0.46D-08     -V/T= 2.0025
 Calling FoFJK, ICntrl=      2127 FMM=F ISym2X=1 I1Cent= 0 IOpClX= 0 NMat=1 NMatS=1 NMatT=0.
 ***** Axes restored to original set *****
 -------------------------------------------------------------------
 Center     Atomic                   Forces (Hartrees/Bohr)
 Number     Number              X              Y              Z
 -------------------------------------------------------------------
      1        8           0.036292524   -0.017164760   -0.033643369
      2       17          -0.011433285    0.004032966    0.017471964
      3        1          -0.024859239    0.013131794    0.016171405
 -------------------------------------------------------------------
 Cartesian Forces:  Max     0.036292524 RMS     0.021725170

 GradGradGradGradGradGradGradGradGradGradGradGradGradGradGradGradGradGrad
 Berny optimization.
 FormGI is forming the generalized inverse of G from B-inverse, IUseBI=4.
 Internal  Forces:  Max     0.059439497 RMS     0.034780355
 Search for a saddle point.
 Step number   4 out of a maximum of  100
 All quantities printed in internal units (Hartrees-Bohrs-Radians)
 Swapping is turned off.
 Update second derivatives using D2CorX and points    1    2    3    4
 The second derivative matrix:
                          R1        R2        A1
           R1           0.29655
           R2          -0.01132   0.52948
           A1           0.02503   0.00436   0.13538
 ITU=  0  0  0  0
     Eigenvalues ---    0.13149   0.29987   0.53005
 Eigenvectors required to have negative eigenvalues:
                          A1        R1        R2
   1                   -0.98843   0.15093   0.01511
 RFO step:  Lambda0=1.549124620D-01 Lambda=-1.51884605D-06.
 Linear search not attempted -- option 19 set.
 Iteration  1 RMS(Cart)=  0.00211655 RMS(Int)=  0.00000167
 Iteration  2 RMS(Cart)=  0.00000132 RMS(Int)=  0.00000000
 Iteration  3 RMS(Cart)=  0.00000000 RMS(Int)=  0.00000000
 ClnCor:  largest displacement from symmetrization is 5.01D-15 for atom     3.
 Variable       Old X    -DE/DX   Delta X   Delta X   Delta X     New X
                                 (Linear)    (Quad)   (Total)
    R1        3.14593   0.00976   0.00000   0.00188   0.00188   3.14781
    R2        1.83326   0.00085   0.00000  -0.00010  -0.00010   1.83316
    A1        2.18408  -0.05944   0.00000   0.00256   0.00256   2.18664
         Item               Value     Threshold  Converged?
 Maximum Force            0.059439     0.000450     NO 
 RMS     Force            0.034780     0.000300     NO 
 Maximum Displacement     0.001929     0.001800     NO 
 RMS     Displacement     0.002116     0.001200     NO 
 Predicted change in Energy= 1.348499D-04
 GradGradGradGradGradGradGradGradGradGradGradGradGradGradGradGradGradGrad

                          Input orientation:                          
 ---------------------------------------------------------------------
 Center     Atomic      Atomic             Coordinates (Angstroms)
 Number     Number       Type             X           Y           Z
 ---------------------------------------------------------------------
      1          8           0       -1.154555    1.796237    0.498023
      2         17           0       -2.520755    2.731870    0.316905
      3          1           0       -0.839172    1.421191    1.335221
 ---------------------------------------------------------------------
                    Distance matrix (angstroms):
                    1          2          3
     1  O    0.000000
     2  Cl   1.665748   0.000000
     3  H    0.970064   2.362746   0.000000
 Stoichiometry    ClHO
 Framework group  CS[SG(ClHO)]
 Deg. of freedom     3
 Full point group                 CS      NOp   2
 Largest Abelian subgroup         CS      NOp   2
 Largest concise Abelian subgroup C1      NOp   1
                         Standard orientation:                         
 ---------------------------------------------------------------------
 Center     Atomic      Atomic             Coordinates (Angstroms)
 Number     Number       Type             X           Y           Z
 ---------------------------------------------------------------------
      1          8           0        0.030456    1.067591   -0.000000
      2         17           0        0.030456   -0.598157    0.000000
      3          1           0       -0.761393    1.627948   -0.000000
 ---------------------------------------------------------------------
 Rotational constants (GHZ):         893.7942343          15.1429708          14.8906876
 Standard basis: SVP (5D, 7F)
 There are    29 symmetry adapted cartesian basis functions of A'  symmetry.
 There are    10 symmetry adapted cartesian basis functions of A"  symmetry.
 There are    27 symmetry adapted basis functions of A'  symmetry.
 There are    10 symmetry adapted basis functions of A"  symmetry.
    37 basis functions,    69 primitive gaussians,    39 cartesian basis functions
    13 alpha electrons       13 beta electrons
       nuclear repulsion energy        51.3761761850 Hartrees.
 NAtoms=    3 NActive=    3 NUniq=    3 SFac= 1.00D+00 NAtFMM=   60 NAOKFM=F Big=F
 Integral buffers will be    131072 words long.
 Raffenetti 2 integral format.
 Two-electron integral symmetry is turned on.
 Nuclear repulsion after empirical dispersion term =       51.3745796060 Hartrees.
 One-electron integrals computed using PRISM.
 NBasis=    37 RedAO= T EigKep=  3.53D-02  NBF=    27    10
 NBsUse=    37 1.00D-06 EigRej= -1.00D+00 NBFU=    27    10
 Initial guess from the checkpoint file:  "/tmp/Gau-31339.chk"
 B after Tr=     0.000000    0.000000   -0.000000
         Rot=    1.000000   -0.000000    0.000000    0.000120 Ang=   0.01 deg.
 Initial guess orbital symmetries:
       Occupied  (A') (A') (A') (A') (A') (A") (A') (A') (A') (A')
                 (A") (A') (A")
       Virtual   (A') (A') (A') (A') (A') (A") (A') (A') (A") (A')
                 (A") (A') (A") (A') (A') (A') (A") (A') (A') (A")
                 (A') (A") (A') (A')
 Keep R1 ints in memory in symmetry-blocked form, NReq=7153137.
 Requested convergence on RMS density matrix=1.00D-08 within 128 cycles.
 Requested convergence on MAX density matrix=1.00D-06.
 Requested convergence on             energy=1.00D-06.
 No special actions if energy rises.
 SCF Done:  E(RB3LYP) =  -535.747051523     A.U. after    7 cycles
            NFock=  7  Conv=0.99D-08     -V/T= 2.0025
 Calling FoFJK, ICntrl=      2127 FMM=F ISym2X=1 I1Cent= 0 IOpClX= 0 NMat=1 NMatS=1 NMatT=0.
 ***** Axes restored to original set *****
 -------------------------------------------------------------------
 Center     Atomic                   Forces (Hartrees/Bohr)
 Number     Number              X              Y              Z
 -------------------------------------------------------------------
      1        8           0.035948634   -0.016864836   -0.034011064
      2       17          -0.010962347    0.003689604    0.017638626
      3        1          -0.024986287    0.013175232    0.016372438
 -------------------------------------------------------------------
 Cartesian Forces:  Max     0.035948634 RMS     0.021716212

 GradGradGradGradGradGradGradGradGradGradGradGradGradGradGradGradGradGrad
 Berny optimization.
 FormGI is forming the generalized inverse of G from B-inverse, IUseBI=4.
 Internal  Forces:  Max     0.059828260 RMS     0.034947069
 Search for a saddle point.
 Step number   5 out of a maximum of  100
 All quantities printed in internal units (Hartrees-Bohrs-Radians)
 Swapping is turned off.
 Update second derivatives using D2CorX and points    2    3    4    5
 The second derivative matrix:
                          R1        R2        A1
           R1           0.29440
           R2          -0.01102   0.52949
           A1           0.02306   0.00492   0.13524
 ITU=  0  0  0  0
     Eigenvalues ---    0.13186   0.29723   0.53004
 Eigenvectors required to have negative eigenvalues:
                          A1        R1        R2
   1                   -0.98980   0.14152   0.01618
 RFO step:  Lambda0=1.554324319D-01 Lambda=-1.15529099D-06.
 Linear search not attempted -- option 19 set.
 Iteration  1 RMS(Cart)=  0.00184316 RMS(Int)=  0.00000126
 Iteration  2 RMS(Cart)=  0.00000100 RMS(Int)=  0.00000000
 ClnCor:  largest displacement from symmetrization is 2.44D-15 for atom     3.
 Variable       Old X    -DE/DX   Delta X   Delta X   Delta X     New X
                                 (Linear)    (Quad)   (Total)
    R1        3.14781   0.00915   0.00000   0.00167   0.00167   3.14947
    R2        1.83316   0.00091   0.00000  -0.00012  -0.00012   1.83304
    A1        2.18664  -0.05983   0.00000   0.00222   0.00222   2.18886
         Item               Value     Threshold  Converged?
 Maximum Force            0.059828     0.000450     NO 
 RMS     Force            0.034947     0.000300     NO 
 Maximum Displacement     0.001671     0.001800     YES
 RMS     Displacement     0.001843     0.001200     NO 
 Predicted change in Energy= 1.186463D-04
 GradGradGradGradGradGradGradGradGradGradGradGradGradGradGradGradGradGrad

                          Input orientation:                          
 ---------------------------------------------------------------------
 Center     Atomic      Atomic             Coordinates (Angstroms)
 Number     Number       Type             X           Y           Z
 ---------------------------------------------------------------------
      1          8           0       -1.154751    1.796228    0.498712
      2         17           0       -2.521444    2.732452    0.316261
      3          1           0       -0.838287    1.420618    1.335175
 ---------------------------------------------------------------------
                    Distance matrix (angstroms):
                    1          2          3
     1  O    0.000000
     2  Cl   1.666629   0.000000
     3  H    0.970001   2.364764   0.000000
 Stoichiometry    ClHO
 Framework group  CS[SG(ClHO)]
 Deg. of freedom     3
 Full point group                 CS      NOp   2
 Largest Abelian subgroup         CS      NOp   2
 Largest concise Abelian subgroup C1      NOp   1
                         Standard orientation:                         
 ---------------------------------------------------------------------
 Center     Atomic      Atomic             Coordinates (Angstroms)
 Number     Number       Type             X           Y           Z
 ---------------------------------------------------------------------
      1          8           0        0.030406    1.068101   -0.000000
      2         17           0        0.030406   -0.598529    0.000000
      3          1           0       -0.760145    1.630180   -0.000000
 ---------------------------------------------------------------------
 Rotational constants (GHZ):         896.8571652          15.1248523          14.8740128
 Standard basis: SVP (5D, 7F)
 There are    29 symmetry adapted cartesian basis functions of A'  symmetry.
 There are    10 symmetry adapted cartesian basis functions of A"  symmetry.
 There are    27 symmetry adapted basis functions of A'  symmetry.
 There are    10 symmetry adapted basis functions of A"  symmetry.
    37 basis functions,    69 primitive gaussians,    39 cartesian basis functions
    13 alpha electrons       13 beta electrons
       nuclear repulsion energy        51.3503565113 Hartrees.
 NAtoms=    3 NActive=    3 NUniq=    3 SFac= 1.00D+00 NAtFMM=   60 NAOKFM=F Big=F
 Integral buffers will be    131072 words long.
 Raffenetti 2 integral format.
 Two-electron integral symmetry is turned on.
 Nuclear repulsion after empirical dispersion term =       51.3487601918 Hartrees.
 One-electron integrals computed using PRISM.
 NBasis=    37 RedAO= T EigKep=  3.54D-02  NBF=    27    10
 NBsUse=    37 1.00D-06 EigRej= -1.00D+00 NBFU=    27    10
 Initial guess from the checkpoint file:  "/tmp/Gau-31339.chk"
 B after Tr=    -0.000000   -0.000000   -0.000000
         Rot=    1.000000    0.000000    0.000000    0.000105 Ang=   0.01 deg.
 Initial guess orbital symmetries:
       Occupied  (A') (A') (A') (A') (A') (A") (A') (A') (A') (A')
                 (A") (A') (A")
       Virtual   (A') (A') (A') (A') (A') (A") (A') (A') (A") (A')
                 (A") (A') (A") (A') (A') (A') (A") (A') (A') (A")
                 (A') (A") (A') (A')
 Keep R1 ints in memory in symmetry-blocked form, NReq=7153137.
 Requested convergence on RMS density matrix=1.00D-08 within 128 cycles.
 Requested convergence on MAX density matrix=1.00D-06.
 Requested convergence on             energy=1.00D-06.
 No special actions if energy rises.
 SCF Done:  E(RB3LYP) =  -535.746932883     A.U. after    7 cycles
            NFock=  7  Conv=0.88D-08     -V/T= 2.0025
 Calling FoFJK, ICntrl=      2127 FMM=F ISym2X=1 I1Cent= 0 IOpClX= 0 NMat=1 NMatS=1 NMatT=0.
 ***** Axes restored to original set *****
 -------------------------------------------------------------------
 Center     Atomic                   Forces (Hartrees/Bohr)
 Number     Number              X              Y              Z
 -------------------------------------------------------------------
      1        8           0.035639416   -0.016594179   -0.034346550
      2       17          -0.010548506    0.003388022    0.017784328
      3        1          -0.025090910    0.013206157    0.016562222
 -------------------------------------------------------------------
 Cartesian Forces:  Max     0.035639416 RMS     0.021711533

 GradGradGradGradGradGradGradGradGradGradGradGradGradGradGradGradGradGrad
 Berny optimization.
 FormGI is forming the generalized inverse of G from B-inverse, IUseBI=4.
 Internal  Forces:  Max     0.060165274 RMS     0.035094607
 Search for a saddle point.
 Step number   6 out of a maximum of  100
 All quantities printed in internal units (Hartrees-Bohrs-Radians)
 Swapping is turned off.
 Second derivative matrix not updated -- analytic derivatives used.
 The second derivative matrix:
                          R1        R2        A1
           R1           0.29440
           R2          -0.01102   0.52949
           A1           0.02306   0.00492   0.13524
 ITU=  0  0  0  0
     Eigenvalues ---    0.13186   0.29723   0.53004
 Eigenvectors required to have negative eigenvalues:
                          A1        R1        R2
   1                   -0.98980   0.14152   0.01618
 RFO step:  Lambda0=1.556073901D-01 Lambda= 0.00000000D+00.
 Linear search not attempted -- option 19 set.
 Iteration  1 RMS(Cart)=  0.00001261 RMS(Int)=  0.00000000
 Iteration  2 RMS(Cart)=  0.00000000 RMS(Int)=  0.00000000
 ClnCor:  largest displacement from symmetrization is 4.28D-15 for atom     3.
 Variable       Old X    -DE/DX   Delta X   Delta X   Delta X     New X
                                 (Linear)    (Quad)   (Total)
    R1        3.14947   0.00861   0.00000   0.00001   0.00001   3.14948
    R2        1.83304   0.00098   0.00000  -0.00000  -0.00000   1.83304
    A1        2.18886  -0.06017   0.00000   0.00002   0.00002   2.18888
         Item               Value     Threshold  Converged?
 Maximum Force            0.060165     0.000450     NO 
 RMS     Force            0.035095     0.000300     NO 
 Maximum Displacement     0.000011     0.001800     YES
 RMS     Displacement     0.000013     0.001200     YES
 Predicted change in Energy= 8.213183D-07
 GradGradGradGradGradGradGradGradGradGradGradGradGradGradGradGradGradGrad

                          Input orientation:                          
 ---------------------------------------------------------------------
 Center     Atomic      Atomic             Coordinates (Angstroms)
 Number     Number       Type             X           Y           Z
 ---------------------------------------------------------------------
      1          8           0       -1.154752    1.796228    0.498717
      2         17           0       -2.521449    2.732456    0.316257
      3          1           0       -0.838281    1.420614    1.335175
 ---------------------------------------------------------------------
                    Distance matrix (angstroms):
                    1          2          3
     1  O    0.000000
     2  Cl   1.666635   0.000000
     3  H    0.970001   2.364778   0.000000
 Stoichiometry    ClHO
 Framework group  CS[SG(ClHO)]
 Deg. of freedom     3
 Full point group                 CS      NOp   2
 Largest Abelian subgroup         CS      NOp   2
 Largest concise Abelian subgroup C1      NOp   1
                         Standard orientation:                         
 ---------------------------------------------------------------------
 Center     Atomic      Atomic             Coordinates (Angstroms)
 Number     Number       Type             X           Y           Z
 ---------------------------------------------------------------------
      1          8           0        0.030405    1.068104   -0.000000
      2         17           0        0.030405   -0.598531    0.000000
      3          1           0       -0.760136    1.630195   -0.000000
 ---------------------------------------------------------------------
 Rotational constants (GHZ):         896.8785884          15.1247282          14.8738986
 Standard basis: SVP (5D, 7F)
 There are    29 symmetry adapted cartesian basis functions of A'  symmetry.
 There are    10 symmetry adapted cartesian basis functions of A"  symmetry.
 There are    27 symmetry adapted basis functions of A'  symmetry.
 There are    10 symmetry adapted basis functions of A"  symmetry.
    37 basis functions,    69 primitive gaussians,    39 cartesian basis functions
    13 alpha electrons       13 beta electrons
       nuclear repulsion energy        51.3501803390 Hartrees.
 NAtoms=    3 NActive=    3 NUniq=    3 SFac= 1.00D+00 NAtFMM=   60 NAOKFM=F Big=F
 Integral buffers will be    131072 words long.
 Raffenetti 2 integral format.
 Two-electron integral symmetry is turned on.
 Nuclear repulsion after empirical dispersion term =       51.3485840213 Hartrees.
 One-electron integrals computed using PRISM.
 NBasis=    37 RedAO= T EigKep=  3.54D-02  NBF=    27    10
 NBsUse=    37 1.00D-06 EigRej= -1.00D+00 NBFU=    27    10
 Initial guess from the checkpoint file:  "/tmp/Gau-31339.chk"
 B after Tr=    -0.000000    0.000000    0.000000
         Rot=    1.000000    0.000000   -0.000000    0.000001 Ang=   0.00 deg.
 Initial guess orbital symmetries:
       Occupied  (A') (A') (A') (A') (A') (A") (A') (A') (A') (A')
                 (A") (A') (A")
       Virtual   (A') (A') (A') (A') (A') (A") (A') (A') (A") (A')
                 (A") (A') (A") (A') (A') (A') (A") (A') (A') (A")
                 (A') (A") (A') (A')
 Keep R1 ints in memory in symmetry-blocked form, NReq=7153137.
 Requested convergence on RMS density matrix=1.00D-08 within 128 cycles.
 Requested convergence on MAX density matrix=1.00D-06.
 Requested convergence on             energy=1.00D-06.
 No special actions if energy rises.
 SCF Done:  E(RB3LYP) =  -535.746932062     A.U. after    4 cycles
            NFock=  4  Conv=0.45D-08     -V/T= 2.0025
 Calling FoFJK, ICntrl=      2127 FMM=F ISym2X=1 I1Cent= 0 IOpClX= 0 NMat=1 NMatS=1 NMatT=0.
 ***** Axes restored to original set *****
 -------------------------------------------------------------------
 Center     Atomic                   Forces (Hartrees/Bohr)
 Number     Number              X              Y              Z
 -------------------------------------------------------------------
      1        8           0.035637239   -0.016592256   -0.034348998
      2       17          -0.010545661    0.003385950    0.017785328
      3        1          -0.025091577    0.013206307    0.016563670
 -------------------------------------------------------------------
 Cartesian Forces:  Max     0.035637239 RMS     0.021711522

 GradGradGradGradGradGradGradGradGradGradGradGradGradGradGradGradGradGrad
 Berny optimization.
 FormGI is forming the generalized inverse of G from B-inverse, IUseBI=4.
 Internal  Forces:  Max     0.060167584 RMS     0.035095631
 Search for a saddle point.
 Step number   7 out of a maximum of  100
 All quantities printed in internal units (Hartrees-Bohrs-Radians)
 Swapping is turned off.
 Update second derivatives using D2CorX and points    4    5    7
 The second derivative matrix:
                          R1        R2        A1
           R1           0.29317
           R2          -0.01086   0.52947
           A1           0.02225   0.00508   0.13526
 ITU=  0  0  0  0
     Eigenvalues ---    0.13208   0.29582   0.53001
 Eigenvectors required to have negative eigenvalues:
                          A1        R1        R2
   1                   -0.99032   0.13786   0.01644
 RFO step:  Lambda0=1.557975391D-01 Lambda=-1.70427672D-07.
 Linear search not attempted -- option 19 set.
 Iteration  1 RMS(Cart)=  0.00071322 RMS(Int)=  0.00000019
 Iteration  2 RMS(Cart)=  0.00000015 RMS(Int)=  0.00000000
 ClnCor:  largest displacement from symmetrization is 1.66D-15 for atom     3.
 Variable       Old X    -DE/DX   Delta X   Delta X   Delta X     New X
                                 (Linear)    (Quad)   (Total)
    R1        3.14948   0.00860   0.00000   0.00065   0.00065   3.15013
    R2        1.83304   0.00098   0.00000  -0.00003  -0.00003   1.83301
    A1        2.18888  -0.06017   0.00000   0.00085   0.00085   2.18973
         Item               Value     Threshold  Converged?
 Maximum Force            0.060168     0.000450     NO 
 RMS     Force            0.035096     0.000300     NO 
 Maximum Displacement     0.000649     0.001800     YES
 RMS     Displacement     0.000713     0.001200     YES
 Predicted change in Energy= 4.601780D-05
 GradGradGradGradGradGradGradGradGradGradGradGradGradGradGradGradGradGrad

                          Input orientation:                          
 ---------------------------------------------------------------------
 Center     Atomic      Atomic             Coordinates (Angstroms)
 Number     Number       Type             X           Y           Z
 ---------------------------------------------------------------------
      1          8           0       -1.154828    1.796225    0.498979
      2         17           0       -2.521716    2.732682    0.316008
      3          1           0       -0.837938    1.420391    1.335162
 ---------------------------------------------------------------------
                    Distance matrix (angstroms):
                    1          2          3
     1  O    0.000000
     2  Cl   1.666977   0.000000
     3  H    0.969986   2.365564   0.000000
 Stoichiometry    ClHO
 Framework group  CS[SG(ClHO)]
 Deg. of freedom     3
 Full point group                 CS      NOp   2
 Largest Abelian subgroup         CS      NOp   2
 Largest concise Abelian subgroup C1      NOp   1
                         Standard orientation:                         
 ---------------------------------------------------------------------
 Center     Atomic      Atomic             Coordinates (Angstroms)
 Number     Number       Type             X           Y           Z
 ---------------------------------------------------------------------
      1          8           0        0.030386    1.068302   -0.000000
      2         17           0        0.030386   -0.598675    0.000000
      3          1           0       -0.759662    1.631059   -0.000000
 ---------------------------------------------------------------------
 Rotational constants (GHZ):         898.0463230          15.1177115          14.8674331
 Standard basis: SVP (5D, 7F)
 There are    29 symmetry adapted cartesian basis functions of A'  symmetry.
 There are    10 symmetry adapted cartesian basis functions of A"  symmetry.
 There are    27 symmetry adapted basis functions of A'  symmetry.
 There are    10 symmetry adapted basis functions of A"  symmetry.
    37 basis functions,    69 primitive gaussians,    39 cartesian basis functions
    13 alpha electrons       13 beta electrons
       nuclear repulsion energy        51.3401286508 Hartrees.
 NAtoms=    3 NActive=    3 NUniq=    3 SFac= 1.00D+00 NAtFMM=   60 NAOKFM=F Big=F
 Integral buffers will be    131072 words long.
 Raffenetti 2 integral format.
 Two-electron integral symmetry is turned on.
 Nuclear repulsion after empirical dispersion term =       51.3385324342 Hartrees.
 One-electron integrals computed using PRISM.
 NBasis=    37 RedAO= T EigKep=  3.54D-02  NBF=    27    10
 NBsUse=    37 1.00D-06 EigRej= -1.00D+00 NBFU=    27    10
 Initial guess from the checkpoint file:  "/tmp/Gau-31339.chk"
 B after Tr=     0.000000   -0.000000   -0.000000
         Rot=    1.000000    0.000000   -0.000000    0.000040 Ang=   0.00 deg.
 Initial guess orbital symmetries:
       Occupied  (A') (A') (A') (A') (A') (A") (A') (A') (A') (A')
                 (A") (A') (A")
       Virtual   (A') (A') (A') (A') (A') (A") (A') (A') (A") (A')
                 (A") (A') (A") (A') (A') (A') (A") (A') (A') (A")
                 (A') (A") (A') (A')
 Keep R1 ints in memory in symmetry-blocked form, NReq=7153137.
 Requested convergence on RMS density matrix=1.00D-08 within 128 cycles.
 Requested convergence on MAX density matrix=1.00D-06.
 Requested convergence on             energy=1.00D-06.
 No special actions if energy rises.
 SCF Done:  E(RB3LYP) =  -535.746886046     A.U. after    7 cycles
            NFock=  7  Conv=0.34D-08     -V/T= 2.0025
 Calling FoFJK, ICntrl=      2127 FMM=F ISym2X=1 I1Cent= 0 IOpClX= 0 NMat=1 NMatS=1 NMatT=0.
 ***** Axes restored to original set *****
 -------------------------------------------------------------------
 Center     Atomic                   Forces (Hartrees/Bohr)
 Number     Number              X              Y              Z
 -------------------------------------------------------------------
      1        8           0.035520529   -0.016491123   -0.034470511
      2       17          -0.010386241    0.003269760    0.017841524
      3        1          -0.025134288    0.013221363    0.016628987
 -------------------------------------------------------------------
 Cartesian Forces:  Max     0.035520529 RMS     0.021709769

 GradGradGradGradGradGradGradGradGradGradGradGradGradGradGradGradGradGrad
 Berny optimization.
 FormGI is forming the generalized inverse of G from B-inverse, IUseBI=4.
 Internal  Forces:  Max     0.060297066 RMS     0.035153061
 Search for a saddle point.
 Step number   8 out of a maximum of  100
 All quantities printed in internal units (Hartrees-Bohrs-Radians)
 Swapping is turned off.
 Update second derivatives using D2CorX and points    5    8
 The second derivative matrix:
                          R1        R2        A1
           R1           0.29294
           R2          -0.01091   0.52948
           A1           0.02209   0.00501   0.13526
 ITU=  0  0  0  0
     Eigenvalues ---    0.13212   0.29554   0.53002
 Eigenvectors required to have negative eigenvalues:
                          A1        R1        R2
   1                   -0.99042   0.13715   0.01624
 RFO step:  Lambda0=1.558985081D-01 Lambda= 0.00000000D+00.
 Linear search not attempted -- option 19 set.
 Iteration  1 RMS(Cart)=  0.00014972 RMS(Int)=  0.00000001
 Iteration  2 RMS(Cart)=  0.00000001 RMS(Int)=  0.00000000
 ClnCor:  largest displacement from symmetrization is 3.26D-15 for atom     3.
 Variable       Old X    -DE/DX   Delta X   Delta X   Delta X     New X
                                 (Linear)    (Quad)   (Total)
    R1        3.15013   0.00839   0.00000   0.00013   0.00013   3.15026
    R2        1.83301   0.00100   0.00000   0.00002   0.00002   1.83303
    A1        2.18973  -0.06030   0.00000   0.00017   0.00017   2.18991
         Item               Value     Threshold  Converged?
 Maximum Force            0.060297     0.000450     NO 
 RMS     Force            0.035153     0.000300     NO 
 Maximum Displacement     0.000141     0.001800     YES
 RMS     Displacement     0.000150     0.001200     YES
 Predicted change in Energy= 9.382135D-06
 GradGradGradGradGradGradGradGradGradGradGradGradGradGradGradGradGradGrad

                          Input orientation:                          
 ---------------------------------------------------------------------
 Center     Atomic      Atomic             Coordinates (Angstroms)
 Number     Number       Type             X           Y           Z
 ---------------------------------------------------------------------
      1          8           0       -1.154846    1.796227    0.499027
      2         17           0       -2.521773    2.732730    0.315956
      3          1           0       -0.837864    1.420341    1.335166
 ---------------------------------------------------------------------
                    Distance matrix (angstroms):
                    1          2          3
     1  O    0.000000
     2  Cl   1.667046   0.000000
     3  H    0.969998   2.365735   0.000000
 Stoichiometry    ClHO
 Framework group  CS[SG(ClHO)]
 Deg. of freedom     3
 Full point group                 CS      NOp   2
 Largest Abelian subgroup         CS      NOp   2
 Largest concise Abelian subgroup C1      NOp   1
                         Standard orientation:                         
 ---------------------------------------------------------------------
 Center     Atomic      Atomic             Coordinates (Angstroms)
 Number     Number       Type             X           Y           Z
 ---------------------------------------------------------------------
      1          8           0        0.030383    1.068341    0.000000
      2         17           0        0.030383   -0.598704   -0.000000
      3          1           0       -0.759578    1.631243    0.000000
 ---------------------------------------------------------------------
 Rotational constants (GHZ):         898.2565745          15.1162898          14.8661157
 Standard basis: SVP (5D, 7F)
 There are    29 symmetry adapted cartesian basis functions of A'  symmetry.
 There are    10 symmetry adapted cartesian basis functions of A"  symmetry.
 There are    27 symmetry adapted basis functions of A'  symmetry.
 There are    10 symmetry adapted basis functions of A"  symmetry.
    37 basis functions,    69 primitive gaussians,    39 cartesian basis functions
    13 alpha electrons       13 beta electrons
       nuclear repulsion energy        51.3380252853 Hartrees.
 NAtoms=    3 NActive=    3 NUniq=    3 SFac= 1.00D+00 NAtFMM=   60 NAOKFM=F Big=F
 Integral buffers will be    131072 words long.
 Raffenetti 2 integral format.
 Two-electron integral symmetry is turned on.
 Nuclear repulsion after empirical dispersion term =       51.3364290906 Hartrees.
 One-electron integrals computed using PRISM.
 NBasis=    37 RedAO= T EigKep=  3.54D-02  NBF=    27    10
 NBsUse=    37 1.00D-06 EigRej= -1.00D+00 NBFU=    27    10
 Initial guess from the checkpoint file:  "/tmp/Gau-31339.chk"
 B after Tr=     0.000000    0.000000    0.000000
         Rot=    1.000000   -0.000000    0.000000    0.000008 Ang=   0.00 deg.
 Initial guess orbital symmetries:
       Occupied  (A') (A') (A') (A') (A') (A") (A') (A') (A') (A')
                 (A") (A') (A")
       Virtual   (A') (A') (A') (A') (A') (A") (A') (A') (A") (A')
                 (A") (A') (A") (A') (A') (A') (A") (A') (A') (A")
                 (A') (A") (A') (A')
 Keep R1 ints in memory in symmetry-blocked form, NReq=7153137.
 Requested convergence on RMS density matrix=1.00D-08 within 128 cycles.
 Requested convergence on MAX density matrix=1.00D-06.
 Requested convergence on             energy=1.00D-06.
 No special actions if energy rises.
 SCF Done:  E(RB3LYP) =  -535.746876664     A.U. after    6 cycles
            NFock=  6  Conv=0.30D-08     -V/T= 2.0025
 Calling FoFJK, ICntrl=      2127 FMM=F ISym2X=1 I1Cent= 0 IOpClX= 0 NMat=1 NMatS=1 NMatT=0.
 ***** Axes restored to original set *****
 -------------------------------------------------------------------
 Center     Atomic                   Forces (Hartrees/Bohr)
 Number     Number              X              Y              Z
 -------------------------------------------------------------------
      1        8           0.035502066   -0.016476638   -0.034482165
      2       17          -0.010354623    0.003246667    0.017852915
      3        1          -0.025147443    0.013229971    0.016629250
 -------------------------------------------------------------------
 Cartesian Forces:  Max     0.035502066 RMS     0.021708523

 GradGradGradGradGradGradGradGradGradGradGradGradGradGradGradGradGradGrad
 Berny optimization.
 FormGI is forming the generalized inverse of G from B-inverse, IUseBI=4.
 Internal  Forces:  Max     0.060323476 RMS     0.035164782
 Search for a saddle point.
 Step number   9 out of a maximum of  100
 All quantities printed in internal units (Hartrees-Bohrs-Radians)
 Swapping is turned off.
 Update second derivatives using D2CorX and points    6    7    9
 The second derivative matrix:
                          R1        R2        A1
           R1           0.29229
           R2          -0.01134   0.52949
           A1           0.02166   0.00444   0.13526
 ITU=  0  0  0  0
     Eigenvalues ---    0.13223   0.29475   0.53006
 Eigenvectors required to have negative eigenvalues:
                          A1        R1        R2
   1                   -0.99072   0.13512   0.01493
 RFO step:  Lambda0=1.560126716D-01 Lambda=-6.70086452D-08.
 Linear search not attempted -- option 19 set.
 Iteration  1 RMS(Cart)=  0.00045576 RMS(Int)=  0.00000008
 Iteration  2 RMS(Cart)=  0.00000006 RMS(Int)=  0.00000000
 ClnCor:  largest displacement from symmetrization is 2.74D-15 for atom     3.
 Variable       Old X    -DE/DX   Delta X   Delta X   Delta X     New X
                                 (Linear)    (Quad)   (Total)
    R1        3.15026   0.00835   0.00000   0.00036   0.00036   3.15062
    R2        1.83303   0.00099   0.00000   0.00015   0.00015   1.83319
    A1        2.18991  -0.06032   0.00000   0.00052   0.00052   2.19042
         Item               Value     Threshold  Converged?
 Maximum Force            0.060323     0.000450     NO 
 RMS     Force            0.035165     0.000300     NO 
 Maximum Displacement     0.000438     0.001800     YES
 RMS     Displacement     0.000456     0.001200     YES
 Predicted change in Energy= 2.797625D-05
 GradGradGradGradGradGradGradGradGradGradGradGradGradGradGradGradGradGrad

                          Input orientation:                          
 ---------------------------------------------------------------------
 Center     Atomic      Atomic             Coordinates (Angstroms)
 Number     Number       Type             X           Y           Z
 ---------------------------------------------------------------------
      1          8           0       -1.154907    1.796243    0.499153
      2         17           0       -2.521943    2.732874    0.315799
      3          1           0       -0.837632    1.420182    1.335197
 ---------------------------------------------------------------------
                    Distance matrix (angstroms):
                    1          2          3
     1  O    0.000000
     2  Cl   1.667238   0.000000
     3  H    0.970080   2.366271   0.000000
 Stoichiometry    ClHO
 Framework group  CS[SG(ClHO)]
 Deg. of freedom     3
 Full point group                 CS      NOp   2
 Largest Abelian subgroup         CS      NOp   2
 Largest concise Abelian subgroup C1      NOp   1
                         Standard orientation:                         
 ---------------------------------------------------------------------
 Center     Atomic      Atomic             Coordinates (Angstroms)
 Number     Number       Type             X           Y           Z
 ---------------------------------------------------------------------
      1          8           0        0.030375    1.068450    0.000000
      2         17           0        0.030375   -0.598789   -0.000000
      3          1           0       -0.759363    1.631807    0.000000
 ---------------------------------------------------------------------
 Rotational constants (GHZ):         898.8007869          15.1122126          14.8623212
 Standard basis: SVP (5D, 7F)
 There are    29 symmetry adapted cartesian basis functions of A'  symmetry.
 There are    10 symmetry adapted cartesian basis functions of A"  symmetry.
 There are    27 symmetry adapted basis functions of A'  symmetry.
 There are    10 symmetry adapted basis functions of A"  symmetry.
    37 basis functions,    69 primitive gaussians,    39 cartesian basis functions
    13 alpha electrons       13 beta electrons
       nuclear repulsion energy        51.3318091528 Hartrees.
 NAtoms=    3 NActive=    3 NUniq=    3 SFac= 1.00D+00 NAtFMM=   60 NAOKFM=F Big=F
 Integral buffers will be    131072 words long.
 Raffenetti 2 integral format.
 Two-electron integral symmetry is turned on.
 Nuclear repulsion after empirical dispersion term =       51.3302130253 Hartrees.
 One-electron integrals computed using PRISM.
 NBasis=    37 RedAO= T EigKep=  3.55D-02  NBF=    27    10
 NBsUse=    37 1.00D-06 EigRej= -1.00D+00 NBFU=    27    10
 Initial guess from the checkpoint file:  "/tmp/Gau-31339.chk"
 B after Tr=    -0.000000   -0.000000   -0.000000
         Rot=    1.000000   -0.000000    0.000000    0.000022 Ang=   0.00 deg.
 Initial guess orbital symmetries:
       Occupied  (A') (A') (A') (A') (A') (A") (A') (A') (A') (A')
                 (A") (A') (A")
       Virtual   (A') (A') (A') (A') (A') (A") (A') (A') (A") (A')
                 (A") (A') (A") (A') (A') (A') (A") (A') (A') (A")
                 (A') (A") (A') (A')
 Keep R1 ints in memory in symmetry-blocked form, NReq=7153137.
 Requested convergence on RMS density matrix=1.00D-08 within 128 cycles.
 Requested convergence on MAX density matrix=1.00D-06.
 Requested convergence on             energy=1.00D-06.
 No special actions if energy rises.
 SCF Done:  E(RB3LYP) =  -535.746848688     A.U. after    6 cycles
            NFock=  6  Conv=0.93D-08     -V/T= 2.0025
 Calling FoFJK, ICntrl=      2127 FMM=F ISym2X=1 I1Cent= 0 IOpClX= 0 NMat=1 NMatS=1 NMatT=0.
 ***** Axes restored to original set *****
 -------------------------------------------------------------------
 Center     Atomic                   Forces (Hartrees/Bohr)
 Number     Number              X              Y              Z
 -------------------------------------------------------------------
      1        8           0.035465445   -0.016453334   -0.034478138
      2       17          -0.010266142    0.003181778    0.017886115
      3        1          -0.025199303    0.013271556    0.016592023
 -------------------------------------------------------------------
 Cartesian Forces:  Max     0.035465445 RMS     0.021702833

 GradGradGradGradGradGradGradGradGradGradGradGradGradGradGradGradGradGrad
 Berny optimization.
 FormGI is forming the generalized inverse of G from B-inverse, IUseBI=4.
 Internal  Forces:  Max     0.060401565 RMS     0.035199653
 Search for a saddle point.
 Step number  10 out of a maximum of  100
 All quantities printed in internal units (Hartrees-Bohrs-Radians)
 Swapping is turned off.
 Update second derivatives using D2CorX and points    7   10
 The second derivative matrix:
                          R1        R2        A1
           R1           0.29234
           R2          -0.01230   0.52923
           A1           0.02167   0.00312   0.13521
 ITU=  0  0  0  0
     Eigenvalues ---    0.13221   0.29468   0.52988
 Eigenvectors required to have negative eigenvalues:
                          A1        R1        R2
   1                   -0.99077   0.13501   0.01197
 RFO step:  Lambda0=1.560362923D-01 Lambda=-6.38154385D-08.
 Linear search not attempted -- option 19 set.
 Iteration  1 RMS(Cart)=  0.00030764 RMS(Int)=  0.00000005
 Iteration  2 RMS(Cart)=  0.00000004 RMS(Int)=  0.00000000
 ClnCor:  largest displacement from symmetrization is 1.05D-15 for atom     1.
 Variable       Old X    -DE/DX   Delta X   Delta X   Delta X     New X
                                 (Linear)    (Quad)   (Total)
    R1        3.15062   0.00824   0.00000  -0.00001  -0.00001   3.15061
    R2        1.83319   0.00091   0.00000   0.00034   0.00034   1.83353
    A1        2.19042  -0.06040   0.00000   0.00036   0.00036   2.19078
         Item               Value     Threshold  Converged?
 Maximum Force            0.060402     0.000450     NO 
 RMS     Force            0.035200     0.000300     NO 
 Maximum Displacement     0.000316     0.001800     YES
 RMS     Displacement     0.000308     0.001200     YES
 Predicted change in Energy= 2.125428D-05
 GradGradGradGradGradGradGradGradGradGradGradGradGradGradGradGradGradGrad

                          Input orientation:                          
 ---------------------------------------------------------------------
 Center     Atomic      Atomic             Coordinates (Angstroms)
 Number     Number       Type             X           Y           Z
 ---------------------------------------------------------------------
      1          8           0       -1.155006    1.796300    0.499187
      2         17           0       -2.522013    2.732939    0.315702
      3          1           0       -0.837464    1.420059    1.335260
 ---------------------------------------------------------------------
                    Distance matrix (angstroms):
                    1          2          3
     1  O    0.000000
     2  Cl   1.667233   0.000000
     3  H    0.970262   2.366612   0.000000
 Stoichiometry    ClHO
 Framework group  CS[SG(ClHO)]
 Deg. of freedom     3
 Full point group                 CS      NOp   2
 Largest Abelian subgroup         CS      NOp   2
 Largest concise Abelian subgroup C1      NOp   1
                         Standard orientation:                         
 ---------------------------------------------------------------------
 Center     Atomic      Atomic             Coordinates (Angstroms)
 Number     Number       Type             X           Y           Z
 ---------------------------------------------------------------------
      1          8           0        0.030372    1.068432   -0.000000
      2         17           0        0.030372   -0.598802    0.000000
      3          1           0       -0.759312    1.632174   -0.000000
 ---------------------------------------------------------------------
 Rotational constants (GHZ):         898.9558327          15.1117082          14.8618757
 Standard basis: SVP (5D, 7F)
 There are    29 symmetry adapted cartesian basis functions of A'  symmetry.
 There are    10 symmetry adapted cartesian basis functions of A"  symmetry.
 There are    27 symmetry adapted basis functions of A'  symmetry.
 There are    10 symmetry adapted basis functions of A"  symmetry.
    37 basis functions,    69 primitive gaussians,    39 cartesian basis functions
    13 alpha electrons       13 beta electrons
       nuclear repulsion energy        51.3305788559 Hartrees.
 NAtoms=    3 NActive=    3 NUniq=    3 SFac= 1.00D+00 NAtFMM=   60 NAOKFM=F Big=F
 Integral buffers will be    131072 words long.
 Raffenetti 2 integral format.
 Two-electron integral symmetry is turned on.
 Nuclear repulsion after empirical dispersion term =       51.3289827674 Hartrees.
 One-electron integrals computed using PRISM.
 NBasis=    37 RedAO= T EigKep=  3.55D-02  NBF=    27    10
 NBsUse=    37 1.00D-06 EigRej= -1.00D+00 NBFU=    27    10
 Initial guess from the checkpoint file:  "/tmp/Gau-31339.chk"
 B after Tr=    -0.000000   -0.000000    0.000000
         Rot=    1.000000    0.000000   -0.000000    0.000010 Ang=   0.00 deg.
 Initial guess orbital symmetries:
       Occupied  (A') (A') (A') (A') (A') (A") (A') (A') (A') (A')
                 (A") (A') (A")
       Virtual   (A') (A') (A') (A') (A') (A") (A') (A') (A") (A')
                 (A") (A') (A") (A') (A') (A') (A") (A') (A') (A")
                 (A') (A") (A') (A')
 Keep R1 ints in memory in symmetry-blocked form, NReq=7153137.
 Requested convergence on RMS density matrix=1.00D-08 within 128 cycles.
 Requested convergence on MAX density matrix=1.00D-06.
 Requested convergence on             energy=1.00D-06.
 No special actions if energy rises.
 SCF Done:  E(RB3LYP) =  -535.746827436     A.U. after    7 cycles
            NFock=  7  Conv=0.22D-08     -V/T= 2.0025
[...]
 ITU=  0  0  0  0
     Eigenvalues ---    0.13221   0.29468   0.52988
 Eigenvectors required to have negative eigenvalues:
                          A1        R1        R2
   1                   -0.99077   0.13501   0.01197
 RFO step:  Lambda0=1.560668787D-01 Lambda= 0.00000000D+00.
 Linear search not attempted -- option 19 set.
 Iteration  1 RMS(Cart)=  0.00000003 RMS(Int)=  0.00000000
 ClnCor:  largest displacement from symmetrization is 2.92D-15 for atom     3.
 Variable       Old X    -DE/DX   Delta X   Delta X   Delta X     New X
                                 (Linear)    (Quad)   (Total)
    R1        3.15059   0.00824   0.00000  -0.00000  -0.00000   3.15059
    R2        1.83354   0.00073   0.00000  -0.00000  -0.00000   1.83354
    A1        2.19080  -0.06045   0.00000   0.00000   0.00000   2.19080
         Item               Value     Threshold  Converged?
 Maximum Force            0.060449     0.000450     NO 
 RMS     Force            0.035226     0.000300     NO 
 Maximum Displacement     0.000000     0.001800     YES
 RMS     Displacement     0.000000     0.001200     YES
 Predicted change in Energy= 2.391725D-09
 GradGradGradGradGradGradGradGradGradGradGradGradGradGradGradGradGradGrad

                          Input orientation:                          
 ---------------------------------------------------------------------
 Center     Atomic      Atomic             Coordinates (Angstroms)
 Number     Number       Type             X           Y           Z
 ---------------------------------------------------------------------
      1          8           0       -1.155014    1.796305    0.499190
      2         17           0       -2.522011    2.732938    0.315698
      3          1           0       -0.837458    1.420055    1.335261
 ---------------------------------------------------------------------
                    Distance matrix (angstroms):
                    1          2          3
     1  O    0.000000
     2  Cl   1.667223   0.000000
     3  H    0.970268   2.366620   0.000000
 Stoichiometry    ClHO
 Framework group  CS[SG(ClHO)]
 Deg. of freedom     3
 Full point group                 CS      NOp   2
 Largest Abelian subgroup         CS      NOp   2
 Largest concise Abelian subgroup C1      NOp   1
                         Standard orientation:                         
 ---------------------------------------------------------------------
 Center     Atomic      Atomic             Coordinates (Angstroms)
 Number     Number       Type             X           Y           Z
 ---------------------------------------------------------------------
      1          8           0        0.030372    1.068424    0.000000
      2         17           0        0.030372   -0.598799   -0.000000
      3          1           0       -0.759305    1.632187    0.000000
 ---------------------------------------------------------------------
 Rotational constants (GHZ):         898.9743359          15.1118574          14.8620251
 Standard basis: SVP (5D, 7F)
 There are    29 symmetry adapted cartesian basis functions of A'  symmetry.
 There are    10 symmetry adapted cartesian basis functions of A"  symmetry.
 There are    27 symmetry adapted basis functions of A'  symmetry.
 There are    10 symmetry adapted basis functions of A"  symmetry.
    37 basis functions,    69 primitive gaussians,    39 cartesian basis functions
    13 alpha electrons       13 beta electrons
       nuclear repulsion energy        51.3308061386 Hartrees.
 NAtoms=    3 NActive=    3 NUniq=    3 SFac= 1.00D+00 NAtFMM=   60 NAOKFM=F Big=F
 Integral buffers will be    131072 words long.
 Raffenetti 2 integral format.
 Two-electron integral symmetry is turned on.
 Nuclear repulsion after empirical dispersion term =       51.3292100508 Hartrees.
 One-electron integrals computed using PRISM.
 NBasis=    37 RedAO= T EigKep=  3.55D-02  NBF=    27    10
 NBsUse=    37 1.00D-06 EigRej= -1.00D+00 NBFU=    27    10
 Initial guess from the checkpoint file:  "/tmp/Gau-31339.chk"
 B after Tr=    -0.000000   -0.000000    0.000000
         Rot=    1.000000    0.000000   -0.000000    0.000000 Ang=   0.00 deg.
 Initial guess orbital symmetries:
       Occupied  (A') (A') (A') (A') (A') (A") (A') (A') (A') (A')
                 (A") (A') (A")
       Virtual   (A') (A') (A') (A') (A') (A") (A') (A') (A") (A')
                 (A") (A') (A") (A') (A') (A') (A") (A') (A') (A")
                 (A') (A") (A') (A')
 Keep R1 ints in memory in symmetry-blocked form, NReq=7153137.
 Requested convergence on RMS density matrix=1.00D-08 within 128 cycles.
 Requested convergence on MAX density matrix=1.00D-06.
 Requested convergence on             energy=1.00D-06.
 No special actions if energy rises.
 SCF Done:  E(RB3LYP) =  -535.746825991     A.U. after    1 cycles
            NFock=  1  Conv=0.48D-08     -V/T= 2.0025
 Calling FoFJK, ICntrl=      2127 FMM=F ISym2X=1 I1Cent= 0 IOpClX= 0 NMat=1 NMatS=1 NMatT=0.
 ***** Axes restored to original set *****
 -------------------------------------------------------------------
 Center     Atomic                   Forces (Hartrees/Bohr)
 Number     Number              X              Y              Z
 -------------------------------------------------------------------
      1        8           0.035540500   -0.016527834   -0.034352677
      2       17          -0.010269530    0.003181157    0.017900377
      3        1          -0.025270969    0.013346677    0.016452301
 -------------------------------------------------------------------
 Cartesian Forces:  Max     0.035540500 RMS     0.021704693

 GradGradGradGradGradGradGradGradGradGradGradGradGradGradGradGradGradGrad
 Berny optimization.
 FormGI is forming the generalized inverse of G from B-inverse, IUseBI=4.
 Internal  Forces:  Max     0.060449378 RMS     0.035225521
 Search for a saddle point.
 Step number  99 out of a maximum of  100
 All quantities printed in internal units (Hartrees-Bohrs-Radians)
 Swapping is turned off.
 Update second derivatives using D2CorX and points   99
 The second derivative matrix:
                          R1        R2        A1
           R1           0.29234
           R2          -0.01230   0.52923
           A1           0.02167   0.00312   0.13521
 ITU=  0  0  0  0
     Eigenvalues ---    0.13221   0.29468   0.52988
 Eigenvectors required to have negative eigenvalues:
                          A1        R1        R2
   1                   -0.99077   0.13501   0.01197
 RFO step:  Lambda0=1.560668606D-01 Lambda= 0.00000000D+00.
 Linear search not attempted -- option 19 set.
 Iteration  1 RMS(Cart)=  0.00000005 RMS(Int)=  0.00000000
 ClnCor:  largest displacement from symmetrization is 1.20D-15 for atom     3.
 Variable       Old X    -DE/DX   Delta X   Delta X   Delta X     New X
                                 (Linear)    (Quad)   (Total)
    R1        3.15059   0.00824   0.00000  -0.00000  -0.00000   3.15059
    R2        1.83354   0.00073   0.00000   0.00000   0.00000   1.83354
    A1        2.19080  -0.06045   0.00000   0.00000   0.00000   2.19080
         Item               Value     Threshold  Converged?
 Maximum Force            0.060449     0.000450     NO 
 RMS     Force            0.035226     0.000300     NO 
 Maximum Displacement     0.000000     0.001800     YES
 RMS     Displacement     0.000000     0.001200     YES
 Predicted change in Energy= 3.923915D-09
 GradGradGradGradGradGradGradGradGradGradGradGradGradGradGradGradGradGrad

                          Input orientation:                          
 ---------------------------------------------------------------------
 Center     Atomic      Atomic             Coordinates (Angstroms)
 Number     Number       Type             X           Y           Z
 ---------------------------------------------------------------------
      1          8           0       -1.155014    1.796305    0.499190
      2         17           0       -2.522011    2.732938    0.315698
      3          1           0       -0.837458    1.420055    1.335261
 ---------------------------------------------------------------------
                    Distance matrix (angstroms):
                    1          2          3
     1  O    0.000000
     2  Cl   1.667223   0.000000
     3  H    0.970268   2.366620   0.000000
 Stoichiometry    ClHO
 Framework group  CS[SG(ClHO)]
 Deg. of freedom     3
 Full point group                 CS      NOp   2
 Largest Abelian subgroup         CS      NOp   2
 Largest concise Abelian subgroup C1      NOp   1
                         Standard orientation:                         
 ---------------------------------------------------------------------
 Center     Atomic      Atomic             Coordinates (Angstroms)
 Number     Number       Type             X           Y           Z
 ---------------------------------------------------------------------
      1          8           0        0.030372    1.068424   -0.000000
      2         17           0        0.030372   -0.598799    0.000000
      3          1           0       -0.759305    1.632187   -0.000000
 ---------------------------------------------------------------------
 Rotational constants (GHZ):         898.9743621          15.1118575          14.8620253
 Standard basis: SVP (5D, 7F)
 There are    29 symmetry adapted cartesian basis functions of A'  symmetry.
 There are    10 symmetry adapted cartesian basis functions of A"  symmetry.
 There are    27 symmetry adapted basis functions of A'  symmetry.
 There are    10 symmetry adapted basis functions of A"  symmetry.
    37 basis functions,    69 primitive gaussians,    39 cartesian basis functions
    13 alpha electrons       13 beta electrons
       nuclear repulsion energy        51.3308062342 Hartrees.
 NAtoms=    3 NActive=    3 NUniq=    3 SFac= 1.00D+00 NAtFMM=   60 NAOKFM=F Big=F
 Integral buffers will be    131072 words long.
 Raffenetti 2 integral format.
 Two-electron integral symmetry is turned on.
 Nuclear repulsion after empirical dispersion term =       51.3292101464 Hartrees.
 One-electron integrals computed using PRISM.
 NBasis=    37 RedAO= T EigKep=  3.55D-02  NBF=    27    10
 NBsUse=    37 1.00D-06 EigRej= -1.00D+00 NBFU=    27    10
 Initial guess from the checkpoint file:  "/tmp/Gau-31339.chk"
 B after Tr=     0.000000    0.000000   -0.000000
         Rot=    1.000000    0.000000   -0.000000    0.000000 Ang=   0.00 deg.
 Initial guess orbital symmetries:
       Occupied  (A') (A') (A') (A') (A') (A") (A') (A') (A') (A')
                 (A") (A') (A")
       Virtual   (A') (A') (A') (A') (A') (A") (A') (A') (A") (A')
                 (A") (A') (A") (A') (A') (A') (A") (A') (A') (A")
                 (A') (A") (A') (A')
 Keep R1 ints in memory in symmetry-blocked form, NReq=7153137.
 Requested convergence on RMS density matrix=1.00D-08 within 128 cycles.
 Requested convergence on MAX density matrix=1.00D-06.
 Requested convergence on             energy=1.00D-06.
 No special actions if energy rises.
 SCF Done:  E(RB3LYP) =  -535.746825987     A.U. after    1 cycles
            NFock=  1  Conv=0.88D-08     -V/T= 2.0025
 Calling FoFJK, ICntrl=      2127 FMM=F ISym2X=1 I1Cent= 0 IOpClX= 0 NMat=1 NMatS=1 NMatT=0.
 ***** Axes restored to original set *****
 -------------------------------------------------------------------
 Center     Atomic                   Forces (Hartrees/Bohr)
 Number     Number              X              Y              Z
 -------------------------------------------------------------------
      1        8           0.035540583   -0.016527900   -0.034352623
      2       17          -0.010269550    0.003181166    0.017900395
      3        1          -0.025271033    0.013346734    0.016452228
 -------------------------------------------------------------------
 Cartesian Forces:  Max     0.035540583 RMS     0.021704713

 GradGradGradGradGradGradGradGradGradGradGradGradGradGradGradGradGradGrad
 Berny optimization.
 Internal  Forces:  Max     0.060449446 RMS     0.035225560
 Search for a saddle point.
 Step number 100 out of a maximum of  100
 All quantities printed in internal units (Hartrees-Bohrs-Radians)
 Swapping is turned off.
 Update second derivatives using D2CorX and points  100
 The second derivative matrix:
                          R1        R2        A1
           R1           0.29234
           R2          -0.01230   0.52923
           A1           0.02167   0.00312   0.13521
 ITU=  0  0  0  0
     Eigenvalues ---    0.13221   0.29468   0.52988
 Eigenvectors required to have negative eigenvalues:
                          A1        R1        R2
   1                   -0.99077   0.13501   0.01197
 RFO step:  Lambda0=1.560669073D-01 Lambda= 0.00000000D+00.
 Linear search not attempted -- option 19 set.
 Iteration  1 RMS(Cart)=  0.00000009 RMS(Int)=  0.00000000
 ClnCor:  largest displacement from symmetrization is 2.84D-15 for atom     3.
 Variable       Old X    -DE/DX   Delta X   Delta X   Delta X     New X
                                 (Linear)    (Quad)   (Total)
    R1        3.15059   0.00824   0.00000  -0.00000  -0.00000   3.15059
    R2        1.83354   0.00073   0.00000  -0.00000  -0.00000   1.83354
    A1        2.19080  -0.06045   0.00000   0.00000   0.00000   2.19080
         Item               Value     Threshold  Converged?
 Maximum Force            0.060449     0.000450     NO 
 RMS     Force            0.035226     0.000300     NO 
 Maximum Displacement     0.000000     0.001800     YES
 RMS     Displacement     0.000000     0.001200     YES
 Predicted change in Energy= 8.518397D-09
 Optimization stopped.
    -- Number of steps exceeded,  NStep= 100
    -- Flag reset to prevent archiving.
                           ----------------------------
                           ! Non-Optimized Parameters !
                           ! (Angstroms and Degrees)  !
 --------------------------                            --------------------------
 ! Name  Definition              Value          Derivative Info.                !
 --------------------------------------------------------------------------------
 ! R1    R(1,2)                  1.6672         -DE/DX =    0.0082              !
 ! R2    R(1,3)                  0.9703         -DE/DX =    0.0007              !
 ! A1    A(2,1,3)              125.5236         -DE/DX =   -0.0604              !
 --------------------------------------------------------------------------------
 GradGradGradGradGradGradGradGradGradGradGradGradGradGradGradGradGradGrad

                          Input orientation:                          
 ---------------------------------------------------------------------
 Center     Atomic      Atomic             Coordinates (Angstroms)
 Number     Number       Type             X           Y           Z
 ---------------------------------------------------------------------
      1          8           0       -1.155014    1.796305    0.499190
      2         17           0       -2.522011    2.732938    0.315698
      3          1           0       -0.837458    1.420055    1.335261
 ---------------------------------------------------------------------
                    Distance matrix (angstroms):
                    1          2          3
     1  O    0.000000
     2  Cl   1.667223   0.000000
     3  H    0.970268   2.366620   0.000000
 Stoichiometry    ClHO
 Framework group  CS[SG(ClHO)]
 Deg. of freedom     3
 Full point group                 CS      NOp   2
 Largest Abelian subgroup         CS      NOp   2
 Largest concise Abelian subgroup C1      NOp   1
                         Standard orientation:                         
 ---------------------------------------------------------------------
 Center     Atomic      Atomic             Coordinates (Angstroms)
 Number     Number       Type             X           Y           Z
 ---------------------------------------------------------------------
      1          8           0        0.030372    1.068424    0.000000
      2         17           0        0.030372   -0.598799   -0.000000
      3          1           0       -0.759305    1.632187    0.000000
 ---------------------------------------------------------------------
 Rotational constants (GHZ):         898.9743621          15.1118575          14.8620253

 **********************************************************************

            Population analysis using the SCF density.

 **********************************************************************

 Orbital symmetries:
       Occupied  (A') (A') (A') (A') (A') (A") (A') (A') (A') (A')
                 (A") (A') (A")
       Virtual   (A') (A') (A') (A') (A') (A") (A') (A') (A") (A')
                 (A") (A') (A") (A') (A') (A') (A") (A') (A') (A")
                 (A') (A") (A') (A')
 The electronic state is 1-A'.
 Alpha  occ. eigenvalues -- -101.54246 -19.17656  -9.49426  -7.26803  -7.25110
 Alpha  occ. eigenvalues --   -7.25071  -1.04258  -0.79480  -0.53824  -0.41300
 Alpha  occ. eigenvalues --   -0.39968  -0.29710  -0.26870
 Alpha virt. eigenvalues --   -0.06006   0.07440   0.43451   0.54314   0.69784
 Alpha virt. eigenvalues --    0.70105   0.74006   0.76228   0.76262   0.84915
 Alpha virt. eigenvalues --    0.85144   0.95281   0.99433   1.07924   1.16983
 Alpha virt. eigenvalues --    1.21536   1.45422   1.69940   2.16693   2.63013
 Alpha virt. eigenvalues --    2.73927   2.92230   3.06207   3.63409
          Condensed to atoms (all electrons):
               1          2          3
     1  O    7.949131   0.099235   0.312699
     2  Cl   0.099235  16.777061  -0.019693
     3  H    0.312699  -0.019693   0.489327
 Mulliken charges:
               1
     1  O   -0.361065
     2  Cl   0.143398
     3  H    0.217667
 Sum of Mulliken charges =  -0.00000
 Mulliken charges with hydrogens summed into heavy atoms:
               1
     1  O   -0.143398
     2  Cl   0.143398
 Electronic spatial extent (au):  <R**2>=            103.3555
 Charge=             -0.0000 electrons
 Dipole moment (field-independent basis, Debye):
    X=             -1.5276    Y=              0.4303    Z=              0.0000  Tot=              1.5871
 Quadrupole moment (field-independent basis, Debye-Ang):
   XX=            -17.0830   YY=            -14.5849   ZZ=            -18.5307
   XY=             -2.9126   XZ=             -0.0000   YZ=             -0.0000
 Traceless Quadrupole moment (field-independent basis, Debye-Ang):
   XX=             -0.3501   YY=              2.1480   ZZ=             -1.7979
   XY=             -2.9126   XZ=             -0.0000   YZ=             -0.0000
 Octapole moment (field-independent basis, Debye-Ang**2):
  XXX=             -1.4591  YYY=              4.7726  ZZZ=              0.0000  XYY=             -4.4508
  XXY=              2.7991  XXZ=              0.0000  XZZ=             -0.2144  YZZ=              0.6949
  YYZ=              0.0000  XYZ=             -0.0000
 Hexadecapole moment (field-independent basis, Debye-Ang**3):
 XXXX=            -17.0282 YYYY=            -67.4458 ZZZZ=            -16.5366 XXXY=             -0.0241
 XXXZ=             -0.0000 YYYX=             -6.2770 YYYZ=             -0.0000 ZZZX=             -0.0000
 ZZZY=             -0.0000 XXYY=            -14.2969 XXZZ=             -5.7316 YYZZ=            -17.6060
 XXYZ=             -0.0000 YYXZ=             -0.0000 ZZXY=              0.4834
 N-N= 5.132921014639D+01 E-N=-1.375716002254D+03  KE= 5.343997464846D+02
 Symmetry A'   KE= 4.836513436414D+02
 Symmetry A"   KE= 5.074840284322D+01


 AND ALL THIS SCIENCE I DON'T UNDERSTAND
 IT'S JUST MY JOB FIVE DAYS A WEEK

                           -- ELTON JOHN, "ROCKET MAN"
 Error termination request processed by link 9999.
 Error termination via Lnk1e in /share/apps/g16.a03/g16/l9999.exe at Thu Mar  6 16:38:52 2025.
 Job cpu time:       0 days  0 hours 13 minutes  5.3 seconds.
 Elapsed time:       0 days  0 hours  1 minutes 43.5 seconds.
 File lengths (MBytes):  RWF=      6 Int=      0 D2E=      0 Chk=      1 Scr=      1
