70
 energy: -143.134767382140 gnorm: 0.095302356373 xtb: 6.6.1 (8d0f1dd)
O    -0.94874435    -1.74261274     2.07023339
H    -1.26766962    -1.89213317     2.96201158
H    -1.59048436    -2.24933400     1.56949193
O    -0.60045714     4.52741708    -3.51330136
H    -0.06393306     3.85659760    -3.08729441
H    -0.52911669     5.23853304    -2.87411225
O    -2.02402439    -1.72194436     4.61313442
H    -1.47464698    -0.98975932     4.89849060
H    -2.88248712    -1.68166877     5.03829083
O     0.92243905     2.06570386     2.96451819
H     0.67861689     2.97287073     2.77232560
H     1.23138743     1.68563896     2.14023666
O    -1.94939546    -1.34686238    -1.07541746
H    -1.45684361    -2.16948512    -1.08028383
H    -1.42801219    -0.66669690    -1.50538550
O    -0.01030605    -3.30412850    -1.58076612
H     0.68466654    -2.67618310    -1.78579211
H     0.41532660    -4.07679922    -1.95647381
O    -3.22830688    -2.75995651     0.86871409
H    -3.12546424    -2.32601964     0.01991516
H    -4.15153538    -2.98571746     0.99528310
O     2.08937296    -2.02342186    -2.86449119
H     1.91273078    -1.12315180    -3.14314786
H     2.62241842    -2.01064064    -2.06759993
O     1.66702707     2.75092756    -2.83362194
H     1.46158817     2.12630791    -2.13577973
H     1.72320547     2.19105028    -3.60997189
O    -0.39938937     0.27971274    -3.36392115
H    -1.15946515     0.80041664    -3.62942182
H    -0.70488784    -0.60286186    -3.58087979
O    -2.59362467     2.49822354    -3.73750039
Cl    -3.92680142     2.72890239    -2.70280756
H    -1.97758675     3.23724862    -3.66731767
O     2.54723814     4.53527562    -0.56902139
Cl     2.62902915     3.40393150     0.70162230
H     2.29326382     3.98563032    -1.32000355
O     1.49404444    -2.24852767     3.90752097
Cl     2.51562570    -1.07361533     4.59825721
H     0.59726042    -2.18347865     4.25699652
O    -0.98386831     0.52845359     4.57281951
Cl    -2.08793965     1.81654372     4.42112531
H    -0.19874017     0.85313077     4.11593156
C     4.45623905    -1.97548789    -0.38773111
C     3.54562968    -2.57456264     0.47402450
C     2.37737207    -1.93926392     0.84986851
C     1.97015471    -0.74937128     0.23731604
C     2.87123691    -0.17314480    -0.65761947
C     4.11781884    -0.73227653    -0.91414806
H     3.74286276    -3.54944737     0.90009242
H     1.80857862    -2.42835659     1.63297638
C    -2.05737672     2.10428795     0.69900340
C    -1.65213614     3.44040778     0.74841384
C    -3.40193298     1.75683572     0.85807130
C    -2.60428648     4.45040202     0.80310325
H    -0.58573546     3.59865308     0.73773420
C    -4.32825347     2.78686292     0.85201690
C    -3.95044086     4.12132367     0.82846477
H    -2.35094696     5.49927181     0.88692730
H    -5.38817774     2.62838364     1.00113407
Cl     5.94780132    -2.67154384    -0.93175024
Cl    -5.10947486     5.42095698     0.92952595
N     0.73224953    -0.19507309     0.59770390
H     0.20099321    -0.73731703     1.26064660
C     0.12043740     0.99843091     0.24834962
O     0.64667368     1.90415241    -0.35329671
N    -1.11090092     1.07625664     0.86964069
H    -1.52991645     0.17569354     1.04069671
H    -3.64027896     0.69896525     0.89712681
H     2.65489283     0.73879214    -1.19009606
Cl     5.22026836     0.09000389    -1.96951976
