 Entering Gaussian System, Link 0=g16
 Input=ts.gjf
 Output=ts.log
 Initial command:
 /share/apps/g16.a03/g16/l1.exe "/tmp/Gau-10680.inp" -scrdir="/tmp/"
 Entering Link 1 = /share/apps/g16.a03/g16/l1.exe PID=     10682.
  
 Copyright (c) 1988,1990,1992,1993,1995,1998,2003,2009,2016,
            Gaussian, Inc.  All Rights Reserved.
  
 This is part of the Gaussian(R) 16 program.  It is based on
 the Gaussian(R) 09 system (copyright 2009, Gaussian, Inc.),
 the Gaussian(R) 03 system (copyright 2003, Gaussian, Inc.),
 the Gaussian(R) 98 system (copyright 1998, Gaussian, Inc.),
 the Gaussian(R) 94 system (copyright 1995, Gaussian, Inc.),
 the Gaussian 92(TM) system (copyright 1992, Gaussian, Inc.),
 the Gaussian 90(TM) system (copyright 1990, Gaussian, Inc.),
 the Gaussian 88(TM) system (copyright 1988, Gaussian, Inc.),
 the Gaussian 86(TM) system (copyright 1986, Carnegie Mellon
 University), and the Gaussian 82(TM) system (copyright 1983,
 Carnegie Mellon University). Gaussian is a federally registered
 trademark of Gaussian, Inc.
  
 This software contains proprietary and confidential information,
 including trade secrets, belonging to Gaussian, Inc.
  
 This software is provided under written license and may be
 used, copied, transmitted, or stored only in accord with that
 written license.
  
 The following legend is applicable only to US Government
 contracts under FAR:
  
                    RESTRICTED RIGHTS LEGEND
  
 Use, reproduction and disclosure by the US Government is
 subject to restrictions as set forth in subparagraphs (a)
 and (c) of the Commercial Computer Software - Restricted
 Rights clause in FAR 52.227-19.
  
 Gaussian, Inc.
 340 Quinnipiac St., Bldg. 40, Wallingford CT 06492
  
  
 ---------------------------------------------------------------
 Warning -- This program may not be used in any manner that
 competes with the business of Gaussian, Inc. or will provide
 assistance to any competitor of Gaussian, Inc.  The licensee
 of this program is prohibited from giving any competitor of
 Gaussian, Inc. access to this program.  By using this program,
 the user acknowledges that Gaussian, Inc. is engaged in the
 business of creating and licensing software in the field of
 computational chemistry and represents and warrants to the
 licensee that it is not a competitor of Gaussian, Inc. and that
 it will not use this program in any manner prohibited above.
 ---------------------------------------------------------------
  

 Cite this work as:
 Gaussian 16, Revision A.03,
 M. J. Frisch, G. W. Trucks, H. B. Schlegel, G. E. Scuseria, 
 M. A. Robb, J. R. Cheeseman, G. Scalmani, V. Barone, 
 G. A. Petersson, H. Nakatsuji, X. Li, M. Caricato, A. V. Marenich, 
 J. Bloino, B. G. Janesko, R. Gomperts, B. Mennucci, H. P. Hratchian, 
 J. V. Ortiz, A. F. Izmaylov, J. L. Sonnenberg, D. Williams-Young, 
 F. Ding, F. Lipparini, F. Egidi, J. Goings, B. Peng, A. Petrone, 
 T. Henderson, D. Ranasinghe, V. G. Zakrzewski, J. Gao, N. Rega, 
 G. Zheng, W. Liang, M. Hada, M. Ehara, K. Toyota, R. Fukuda, 
 J. Hasegawa, M. Ishida, T. Nakajima, Y. Honda, O. Kitao, H. Nakai, 
 T. Vreven, K. Throssell, J. A. Montgomery, Jr., J. E. Peralta, 
 F. Ogliaro, M. J. Bearpark, J. J. Heyd, E. N. Brothers, K. N. Kudin, 
 V. N. Staroverov, T. A. Keith, R. Kobayashi, J. Normand, 
 K. Raghavachari, A. P. Rendell, J. C. Burant, S. S. Iyengar, 
 J. Tomasi, M. Cossi, J. M. Millam, M. Klene, C. Adamo, R. Cammi, 
 J. W. Ochterski, R. L. Martin, K. Morokuma, O. Farkas, 
 J. B. Foresman, and D. J. Fox, Gaussian, Inc., Wallingford CT, 2016.
 
 ******************************************
 Gaussian 16:  EM64L-G16RevA.03 25-Dec-2016
                 6-Mar-2025 
 ******************************************
 %nproc=8
 Will use up to    8 processors via shared memory.
 %mem=4000MB
 --------------------------------------------------------------------
 #opt=(noeigen,calcfc,ts,recalc=5,maxcyc=200) freq B3LYP/SVP em=GD3BJ
 --------------------------------------------------------------------
 1/5=1,6=200,10=4,11=1,18=20,26=3,38=1,71=5/1,3;
 2/9=110,12=2,17=6,18=5,40=1/2;
 3/5=18,7=101,11=2,25=1,30=1,71=2,74=-5,124=41,140=1/1,2,3;
 4//1;
 5/5=2,38=5/2;
 8/6=4,10=90,11=11/1;
 11/6=1,8=1,9=11,15=111,16=1/1,2,10;
 10/6=1,13=1/2;
 6/7=2,8=2,9=2,10=2,28=1/1;
 7/10=1,18=20,25=1/1,2,3,16;
 1/5=1,6=200,10=4,11=1,18=20,26=3,71=5/3(2);
 2/9=110/2;
 99//99;
 2/9=110/2;
 3/5=18,7=101,11=2,25=1,30=1,71=1,74=-5,124=41/1,2,3;
 4/5=5,16=3,69=1/1;
 5/5=2,38=5/2;
 7//1,2,3,16;
 1/5=1,6=200,11=1,18=20,26=3,71=5/3(-5);
 2/9=110/2;
 6/7=2,8=2,9=2,10=2,19=2,28=1/1;
 99/9=1/99;
 ----------
 ts-500.gjf
 ----------
 Symbolic Z-matrix:
 Charge =  0 Multiplicity = 1
 O                    -1.37065   1.40341  -1.6077 
 Cl                   -2.0701    0.92858   0.25779 
 H                    -0.97705   0.66973  -2.06846 
 
 Add virtual bond connecting atoms Cl2        and O1         Dist= 3.87D+00.

 GradGradGradGradGradGradGradGradGradGradGradGradGradGradGradGradGradGrad
 Berny optimization.
 Initialization pass.
                           ----------------------------
                           !    Initial Parameters    !
                           ! (Angstroms and Degrees)  !
 --------------------------                            --------------------------
 ! Name  Definition              Value          Derivative Info.                !
 --------------------------------------------------------------------------------
 ! R1    R(1,2)                  2.0481         calculate D2E/DX2 analytically  !
 ! R2    R(1,3)                  0.9516         calculate D2E/DX2 analytically  !
 ! A1    A(2,1,3)              113.7995         calculate D2E/DX2 analytically  !
 --------------------------------------------------------------------------------
 Trust Radius=3.00D-01 FncErr=1.00D-07 GrdErr=1.00D-06 EigMax=2.50D+02 EigMin=1.00D-04
 Number of steps in this run=    100 maximum allowed number of steps=    100.
 Search for a saddle point of order  1.
 GradGradGradGradGradGradGradGradGradGradGradGradGradGradGradGradGradGrad

                          Input orientation:                          
 ---------------------------------------------------------------------
 Center     Atomic      Atomic             Coordinates (Angstroms)
 Number     Number       Type             X           Y           Z
 ---------------------------------------------------------------------
      1          8           0       -1.370646    1.403414   -1.607698
      2         17           0       -2.070102    0.928576    0.257794
      3          1           0       -0.977048    0.669728   -2.068465
 ---------------------------------------------------------------------
                    Distance matrix (angstroms):
                    1          2          3
     1  O    0.000000
     2  Cl   2.048114   0.000000
     3  H    0.951588   2.583264   0.000000
 Stoichiometry    ClHO
 Framework group  CS[SG(ClHO)]
 Deg. of freedom     3
 Full point group                 CS      NOp   2
 Largest Abelian subgroup         CS      NOp   2
 Largest concise Abelian subgroup C1      NOp   1
                         Standard orientation:                         
 ---------------------------------------------------------------------
 Center     Atomic      Atomic             Coordinates (Angstroms)
 Number     Number       Type             X           Y           Z
 ---------------------------------------------------------------------
      1          8           0        0.033487    1.324382    0.000000
      2         17           0        0.033487   -0.723732   -0.000000
      3          1           0       -0.837181    1.708384    0.000000
 ---------------------------------------------------------------------
 Rotational constants (GHZ):         721.6563701          10.2614291          10.1175647
 Standard basis: SVP (5D, 7F)
 There are    29 symmetry adapted cartesian basis functions of A'  symmetry.
 There are    10 symmetry adapted cartesian basis functions of A"  symmetry.
 There are    27 symmetry adapted basis functions of A'  symmetry.
 There are    10 symmetry adapted basis functions of A"  symmetry.
    37 basis functions,    69 primitive gaussians,    39 cartesian basis functions
    13 alpha electrons       13 beta electrons
       nuclear repulsion energy        43.0699243769 Hartrees.
 NAtoms=    3 NActive=    3 NUniq=    3 SFac= 1.00D+00 NAtFMM=   60 NAOKFM=F Big=F
 Integral buffers will be    131072 words long.
 Raffenetti 2 integral format.
 Two-electron integral symmetry is turned on.
 Nuclear repulsion after empirical dispersion term =       43.0683568347 Hartrees.
 One-electron integrals computed using PRISM.
 NBasis=    37 RedAO= T EigKep=  4.94D-02  NBF=    27    10
 NBsUse=    37 1.00D-06 EigRej= -1.00D+00 NBFU=    27    10
 ExpMin= 1.22D-01 ExpMax= 1.04D+04 ExpMxC= 1.57D+03 IAcc=3 IRadAn=         5 AccDes= 0.00D+00
 Harris functional with IExCor=  402 and IRadAn=       5 diagonalized for initial guess.
 HarFok:  IExCor=  402 AccDes= 0.00D+00 IRadAn=         5 IDoV= 1 UseB2=F ITyADJ=14
 ICtDFT=  3500011 ScaDFX=  1.000000  1.000000  1.000000  1.000000
 FoFCou: FMM=F IPFlag=           0 FMFlag=      100000 FMFlg1=           0
         NFxFlg=           0 DoJE=T BraDBF=F KetDBF=T FulRan=T
         wScrn=  0.000000 ICntrl=       500 IOpCl=  0 I1Cent=   200000004 NGrid=           0
         NMat0=    1 NMatS0=      1 NMatT0=    0 NMatD0=    1 NMtDS0=    0 NMtDT0=    0
 Petite list used in FoFCou.
 Initial guess orbital symmetries:
       Occupied  (A') (A') (A') (A') (A') (A") (A') (A') (A') (A')
                 (A") (A') (A")
       Virtual   (A') (A') (A') (A') (A') (A') (A") (A') (A") (A')
                 (A") (A') (A") (A') (A') (A') (A") (A') (A') (A")
                 (A') (A") (A') (A')
 The electronic state of the initial guess is 1-A'.
 Keep R1 ints in memory in symmetry-blocked form, NReq=7153137.
 Requested convergence on RMS density matrix=1.00D-08 within 128 cycles.
 Requested convergence on MAX density matrix=1.00D-06.
 Requested convergence on             energy=1.00D-06.
 No special actions if energy rises.
 Integral accuracy reduced to 1.0D-05 until final iterations.
 Initial convergence to 1.0D-05 achieved.  Increase integral accuracy.
 SCF Done:  E(RB3LYP) =  -535.726960271     A.U. after   12 cycles
            NFock= 12  Conv=0.47D-08     -V/T= 2.0031
 DoSCS=F DFT=T ScalE2(SS,OS)=  1.000000  1.000000
 Range of M.O.s used for correlation:     1    37
 NBasis=    37 NAE=    13 NBE=    13 NFC=     0 NFV=     0
 NROrb=     37 NOA=    13 NOB=    13 NVA=    24 NVB=    24
 Symmetrizing basis deriv contribution to polar:
 IMax=3 JMax=2 DiffMx= 0.00D+00
 G2DrvN: will do     4 centers at a time, making    1 passes.
 Calling FoFCou, ICntrl=  3107 FMM=F I1Cent=   0 AccDes= 0.00D+00.
 End of G2Drv F.D. properties file   721 does not exist.
 End of G2Drv F.D. properties file   722 does not exist.
 End of G2Drv F.D. properties file   788 does not exist.
          IDoAtm=111
          Differentiating once with respect to nuclear coordinates.
 Keep R1 ints in memory in symmetry-blocked form, NReq=7127942.
          There are    12 degrees of freedom in the 1st order CPHF.  IDoFFX=6 NUNeed=     0.
      6 vectors produced by pass  0 Test12= 2.60D-15 8.33D-09 XBig12= 7.54D-02 1.97D-01.
 AX will form     6 AO Fock derivatives at one time.
      6 vectors produced by pass  1 Test12= 2.60D-15 8.33D-09 XBig12= 6.18D-02 1.30D-01.
      6 vectors produced by pass  2 Test12= 2.60D-15 8.33D-09 XBig12= 7.79D-04 1.24D-02.
      6 vectors produced by pass  3 Test12= 2.60D-15 8.33D-09 XBig12= 4.00D-05 2.36D-03.
      6 vectors produced by pass  4 Test12= 2.60D-15 8.33D-09 XBig12= 2.70D-07 1.84D-04.
      6 vectors produced by pass  5 Test12= 2.60D-15 8.33D-09 XBig12= 8.75D-10 8.30D-06.
      3 vectors produced by pass  6 Test12= 2.60D-15 8.33D-09 XBig12= 8.29D-13 2.35D-07.
      1 vectors produced by pass  7 Test12= 2.60D-15 8.33D-09 XBig12= 6.75D-16 8.80D-09.
 InvSVY:  IOpt=1 It=  1 EMax= 2.22D-16
 Solved reduced A of dimension    40 with     6 vectors.
 End of Minotr F.D. properties file   721 does not exist.
 End of Minotr F.D. properties file   722 does not exist.
 End of Minotr F.D. properties file   788 does not exist.

 **********************************************************************

            Population analysis using the SCF density.

 **********************************************************************

 Orbital symmetries:
       Occupied  (A') (A') (A') (A') (A') (A") (A') (A') (A') (A')
                 (A") (A') (A")
       Virtual   (A') (A') (A') (A') (A') (A') (A") (A') (A") (A')
                 (A") (A') (A") (A') (A') (A') (A") (A') (A') (A")
                 (A') (A') (A") (A')
 The electronic state is 1-A'.
 Alpha  occ. eigenvalues -- -101.54897 -19.20661  -9.49724  -7.27099  -7.25458
 Alpha  occ. eigenvalues --   -7.25440  -0.99429  -0.80530  -0.49551  -0.39306
 Alpha  occ. eigenvalues --   -0.36251  -0.32540  -0.30395
 Alpha virt. eigenvalues --   -0.16988   0.06177   0.46302   0.56715   0.67910
 Alpha virt. eigenvalues --    0.70567   0.70568   0.76512   0.76529   0.83488
 Alpha virt. eigenvalues --    0.83670   0.92852   0.97829   0.98156   1.07680
 Alpha virt. eigenvalues --    1.23142   1.41759   1.60407   2.19955   2.59348
 Alpha virt. eigenvalues --    2.66957   2.93449   2.95329   3.66994
          Condensed to atoms (all electrons):
               1          2          3
     1  O    7.808840   0.147256   0.293726
     2  Cl   0.147256  16.806076  -0.005494
     3  H    0.293726  -0.005494   0.514109
 Mulliken charges:
               1
     1  O   -0.249822
     2  Cl   0.052163
     3  H    0.197659
 Sum of Mulliken charges =   0.00000
 Mulliken charges with hydrogens summed into heavy atoms:
               1
     1  O   -0.052163
     2  Cl   0.052163
 APT charges:
               1
     1  O   -0.570536
     2  Cl   0.056164
     3  H    0.514372
 Sum of APT charges =   0.00000
 APT charges with hydrogens summed into heavy atoms:
               1
     1  O   -0.056164
     2  Cl   0.056164
 Electronic spatial extent (au):  <R**2>=            132.1986
 Charge=              0.0000 electrons
 Dipole moment (field-independent basis, Debye):
    X=             -1.5653    Y=              0.3193    Z=              0.0000  Tot=              1.5975
 Quadrupole moment (field-independent basis, Debye-Ang):
   XX=            -16.9983   YY=            -14.3736   ZZ=            -18.7524
   XY=             -3.0180   XZ=              0.0000   YZ=             -0.0000
 Traceless Quadrupole moment (field-independent basis, Debye-Ang):
   XX=             -0.2902   YY=              2.3345   ZZ=             -2.0443
   XY=             -3.0180   XZ=              0.0000   YZ=             -0.0000
 Octapole moment (field-independent basis, Debye-Ang**2):
  XXX=             -1.7272  YYY=              4.9524  ZZZ=              0.0000  XYY=             -4.9031
  XXY=              3.3892  XXZ=              0.0000  XZZ=             -0.2310  YZZ=              0.5828
  YYZ=              0.0000  XYZ=              0.0000
 Hexadecapole moment (field-independent basis, Debye-Ang**3):
 XXXX=            -17.1965 YYYY=            -95.6350 ZZZZ=            -16.7887 XXXY=             -0.1255
 XXXZ=              0.0000 YYYX=             -6.9573 YYYZ=             -0.0000 ZZZX=              0.0000
 ZZZY=             -0.0000 XXYY=            -18.6720 XXZZ=             -5.8622 YYZZ=            -23.1183
 XXYZ=             -0.0000 YYXZ=              0.0000 ZZXY=              0.5964
 N-N= 4.306835683474D+01 E-N=-1.358935753688D+03  KE= 5.340776998212D+02
 Symmetry A'   KE= 4.833416456284D+02
 Symmetry A"   KE= 5.073605419287D+01
  Exact polarizability:   0.000   0.000   0.000   0.000   0.000   0.000
 Approx polarizability:  13.452  -2.014  72.386  -0.000   0.000   9.728
 Calling FoFJK, ICntrl=    100147 FMM=F ISym2X=1 I1Cent= 0 IOpClX= 0 NMat=1 NMatS=1 NMatT=0.
 ***** Axes restored to original set *****
 -------------------------------------------------------------------
 Center     Atomic                   Forces (Hartrees/Bohr)
 Number     Number              X              Y              Z
 -------------------------------------------------------------------
      1        8          -0.032614527    0.030820203    0.055819363
      2       17           0.025770828    0.004691095   -0.061197778
      3        1           0.006843699   -0.035511299    0.005378415
 -------------------------------------------------------------------
 Cartesian Forces:  Max     0.061197778 RMS     0.034797062
 FormGI is forming the generalized inverse of G from B-inverse, IUseBI=4.

 GradGradGradGradGradGradGradGradGradGradGradGradGradGradGradGradGradGrad
 Berny optimization.
 Internal  Forces:  Max     0.065629616 RMS     0.048054718
 Search for a saddle point.
 Step number   1 out of a maximum of  100
 All quantities printed in internal units (Hartrees-Bohrs-Radians)
 Swapping is turned off.
 Second derivative matrix not updated -- analytic derivatives used.
 The second derivative matrix:
                          R1        R2        A1
           R1           0.01922
           R2          -0.00651   0.59311
           A1          -0.00375  -0.00306   0.11573
 ITU=  0
     Eigenvalues ---    0.01900   0.11586   0.59320
 Eigenvectors required to have negative eigenvalues:
                          R1        A1        R2
   1                   -0.99917  -0.03912  -0.01153
 RFO step:  Lambda0=7.711163173D-02 Lambda=-1.38916615D-02.
 Linear search not attempted -- option 19 set.
 Maximum step size (   0.300) exceeded in Quadratic search.
    -- Step size scaled by   0.675
 Iteration  1 RMS(Cart)=  0.12823615 RMS(Int)=  0.01749697
 Iteration  2 RMS(Cart)=  0.01247342 RMS(Int)=  0.00009139
 Iteration  3 RMS(Cart)=  0.00009269 RMS(Int)=  0.00000001
 Iteration  4 RMS(Cart)=  0.00000001 RMS(Int)=  0.00000000
 ClnCor:  largest displacement from symmetrization is 7.02D-16 for atom     3.
 Variable       Old X    -DE/DX   Delta X   Delta X   Delta X     New X
                                 (Linear)    (Quad)   (Total)
    R1        3.87038  -0.06563   0.00000   0.21982   0.21982   4.09019
    R2        1.79824   0.02761   0.00000   0.03301   0.03301   1.83125
    A1        1.98618  -0.04311   0.00000  -0.20147  -0.20147   1.78470
         Item               Value     Threshold  Converged?
 Maximum Force            0.065630     0.000450     NO 
 RMS     Force            0.048055     0.000300     NO 
 Maximum Displacement     0.137139     0.001800     NO 
 RMS     Displacement     0.134702     0.001200     NO 
 Predicted change in Energy= 8.105308D-03
 GradGradGradGradGradGradGradGradGradGradGradGradGradGradGradGradGradGrad

                          Input orientation:                          
 ---------------------------------------------------------------------
 Center     Atomic      Atomic             Coordinates (Angstroms)
 Number     Number       Type             X           Y           Z
 ---------------------------------------------------------------------
      1          8           0       -1.355766    1.469401   -1.680269
      2         17           0       -2.071107    0.894670    0.280025
      3          1           0       -0.990923    0.637647   -2.018125
 ---------------------------------------------------------------------
                    Distance matrix (angstroms):
                    1          2          3
     1  O    0.000000
     2  Cl   2.164436   0.000000
     3  H    0.969058   2.552323   0.000000
 Stoichiometry    ClHO
 Framework group  CS[SG(ClHO)]
 Deg. of freedom     3
 Full point group                 CS      NOp   2
 Largest Abelian subgroup         CS      NOp   2
 Largest concise Abelian subgroup C1      NOp   1
                         Standard orientation:                         
 ---------------------------------------------------------------------
 Center     Atomic      Atomic             Coordinates (Angstroms)
 Number     Number       Type             X           Y           Z
 ---------------------------------------------------------------------
      1          8           0        0.036422    1.407296   -0.000000
      2         17           0        0.036422   -0.757140    0.000000
      3          1           0       -0.910550    1.613007   -0.000000
 ---------------------------------------------------------------------
 Rotational constants (GHZ):         602.1033501           9.3093086           9.1675660
 Standard basis: SVP (5D, 7F)
 There are    29 symmetry adapted cartesian basis functions of A'  symmetry.
 There are    10 symmetry adapted cartesian basis functions of A"  symmetry.
 There are    27 symmetry adapted basis functions of A'  symmetry.
 There are    10 symmetry adapted basis functions of A"  symmetry.
    37 basis functions,    69 primitive gaussians,    39 cartesian basis functions
    13 alpha electrons       13 beta electrons
       nuclear repulsion energy        41.1435130368 Hartrees.
 NAtoms=    3 NActive=    3 NUniq=    3 SFac= 1.00D+00 NAtFMM=   60 NAOKFM=F Big=F
 Integral buffers will be    131072 words long.
 Raffenetti 2 integral format.
 Two-electron integral symmetry is turned on.
 Nuclear repulsion after empirical dispersion term =       41.1418976609 Hartrees.
 One-electron integrals computed using PRISM.
 NBasis=    37 RedAO= T EigKep=  5.14D-02  NBF=    27    10
 NBsUse=    37 1.00D-06 EigRej= -1.00D+00 NBFU=    27    10
 Initial guess from the checkpoint file:  "/tmp/Gau-10682.chk"
 B after Tr=     0.000000    0.000000    0.000000
         Rot=    0.999993    0.000000    0.000000   -0.003842 Ang=  -0.44 deg.
 Initial guess orbital symmetries:
       Occupied  (A') (A') (A') (A') (A') (A") (A') (A') (A') (A')
                 (A") (A') (A")
       Virtual   (A') (A') (A') (A') (A') (A') (A") (A') (A") (A')
                 (A") (A') (A") (A') (A') (A') (A") (A') (A') (A")
                 (A') (A') (A") (A')
 ExpMin= 1.22D-01 ExpMax= 1.04D+04 ExpMxC= 1.57D+03 IAcc=2 IRadAn=         4 AccDes= 0.00D+00
 Harris functional with IExCor=  402 and IRadAn=       4 diagonalized for initial guess.
 HarFok:  IExCor=  402 AccDes= 0.00D+00 IRadAn=         4 IDoV= 1 UseB2=F ITyADJ=14
 ICtDFT=  3500011 ScaDFX=  1.000000  1.000000  1.000000  1.000000
 FoFCou: FMM=F IPFlag=           0 FMFlag=      100000 FMFlg1=           0
         NFxFlg=           0 DoJE=T BraDBF=F KetDBF=T FulRan=T
         wScrn=  0.000000 ICntrl=       500 IOpCl=  0 I1Cent=   200000004 NGrid=           0
         NMat0=    1 NMatS0=      1 NMatT0=    0 NMatD0=    1 NMtDS0=    0 NMtDT0=    0
 Petite list used in FoFCou.
 Keep R1 ints in memory in symmetry-blocked form, NReq=7153137.
 Requested convergence on RMS density matrix=1.00D-08 within 128 cycles.
 Requested convergence on MAX density matrix=1.00D-06.
 Requested convergence on             energy=1.00D-06.
 No special actions if energy rises.
 Integral accuracy reduced to 1.0D-05 until final iterations.
 Initial convergence to 1.0D-05 achieved.  Increase integral accuracy.
 SCF Done:  E(RB3LYP) =  -535.719126570     A.U. after   14 cycles
            NFock= 14  Conv=0.53D-08     -V/T= 2.0032
 Calling FoFJK, ICntrl=      2127 FMM=F ISym2X=1 I1Cent= 0 IOpClX= 0 NMat=1 NMatS=1 NMatT=0.
 ***** Axes restored to original set *****
 -------------------------------------------------------------------
 Center     Atomic                   Forces (Hartrees/Bohr)
 Number     Number              X              Y              Z
 -------------------------------------------------------------------
      1        8          -0.024834129   -0.000065140    0.056351549
      2       17           0.024010244    0.013430033   -0.062348045
      3        1           0.000823885   -0.013364894    0.005996496
 -------------------------------------------------------------------
 Cartesian Forces:  Max     0.062348045 RMS     0.031004711

 GradGradGradGradGradGradGradGradGradGradGradGradGradGradGradGradGradGrad
 Berny optimization.
 FormGI is forming the generalized inverse of G from B-inverse, IUseBI=4.
 Internal  Forces:  Max     0.067969381 RMS     0.041314854
 Search for a saddle point.
 Step number   2 out of a maximum of  100
 All quantities printed in internal units (Hartrees-Bohrs-Radians)
 Swapping is turned off.
 Update second derivatives using D2CorX and points    1    2
 The second derivative matrix:
                          R1        R2        A1
           R1           0.01210
           R2          -0.00899   0.59227
           A1           0.00012  -0.00168   0.11369
 ITU=  0  0
     Eigenvalues ---    0.01196   0.11369   0.59241
 Eigenvectors required to have negative eigenvalues:
                          R1        R2        A1
   1                   -0.99988  -0.01548   0.00090
 RFO step:  Lambda0=7.403751207D-02 Lambda=-3.67207495D-03.
 Linear search not attempted -- option 19 set.
 Iteration  1 RMS(Cart)=  0.11535049 RMS(Int)=  0.01101081
 Iteration  2 RMS(Cart)=  0.00944633 RMS(Int)=  0.00003714
 Iteration  3 RMS(Cart)=  0.00004337 RMS(Int)=  0.00000000
 Iteration  4 RMS(Cart)=  0.00000000 RMS(Int)=  0.00000000
 ClnCor:  largest displacement from symmetrization is 1.62D-15 for atom     3.
 Variable       Old X    -DE/DX   Delta X   Delta X   Delta X     New X
                                 (Linear)    (Quad)   (Total)
    R1        4.09019  -0.06797   0.00000   0.17260   0.17260   4.26279
    R2        1.83125   0.00969   0.00000   0.02021   0.02021   1.85147
    A1        1.78470  -0.02017   0.00000  -0.17232  -0.17232   1.61239
         Item               Value     Threshold  Converged?
 Maximum Force            0.067969     0.000450     NO 
 RMS     Force            0.041315     0.000300     NO 
 Maximum Displacement     0.122746     0.001800     NO 
 RMS     Displacement     0.118229     0.001200     NO 
 Predicted change in Energy= 1.001976D-02
 GradGradGradGradGradGradGradGradGradGradGradGradGradGradGradGradGradGrad

                          Input orientation:                          
 ---------------------------------------------------------------------
 Center     Atomic      Atomic             Coordinates (Angstroms)
 Number     Number       Type             X           Y           Z
 ---------------------------------------------------------------------
      1          8           0       -1.339542    1.517263   -1.745223
      2         17           0       -2.066843    0.864769    0.287951
      3          1           0       -1.011411    0.619686   -1.961097
 ---------------------------------------------------------------------
                    Distance matrix (angstroms):
                    1          2          3
     1  O    0.000000
     2  Cl   2.255774   0.000000
     3  H    0.979753   2.496441   0.000000
 Stoichiometry    ClHO
 Framework group  CS[SG(ClHO)]
 Deg. of freedom     3
 Full point group                 CS      NOp   2
 Largest Abelian subgroup         CS      NOp   2
 Largest concise Abelian subgroup C1      NOp   1
                         Standard orientation:                         
 ---------------------------------------------------------------------
 Center     Atomic      Atomic             Coordinates (Angstroms)
 Number     Number       Type             X           Y           Z
 ---------------------------------------------------------------------
      1          8           0        0.037650    1.473362   -0.000000
      2         17           0        0.037650   -0.782412    0.000000
      3          1           0       -0.941256    1.514099   -0.000000
 ---------------------------------------------------------------------
 Rotational constants (GHZ):         557.8712308           8.6565503           8.5242781
 Standard basis: SVP (5D, 7F)
 There are    29 symmetry adapted cartesian basis functions of A'  symmetry.
 There are    10 symmetry adapted cartesian basis functions of A"  symmetry.
 There are    27 symmetry adapted basis functions of A'  symmetry.
 There are    10 symmetry adapted basis functions of A"  symmetry.
    37 basis functions,    69 primitive gaussians,    39 cartesian basis functions
    13 alpha electrons       13 beta electrons
       nuclear repulsion energy        39.8283892918 Hartrees.
 NAtoms=    3 NActive=    3 NUniq=    3 SFac= 1.00D+00 NAtFMM=   60 NAOKFM=F Big=F
 Integral buffers will be    131072 words long.
 Raffenetti 2 integral format.
 Two-electron integral symmetry is turned on.
 Nuclear repulsion after empirical dispersion term =       39.8267346314 Hartrees.
 One-electron integrals computed using PRISM.
 NBasis=    37 RedAO= T EigKep=  5.29D-02  NBF=    27    10
 NBsUse=    37 1.00D-06 EigRej= -1.00D+00 NBFU=    27    10
 Initial guess from the checkpoint file:  "/tmp/Gau-10682.chk"
 B after Tr=    -0.000000    0.000000    0.000000
         Rot=    0.999997    0.000000   -0.000000   -0.002420 Ang=  -0.28 deg.
 Initial guess orbital symmetries:
       Occupied  (A') (A') (A') (A') (A') (A") (A') (A') (A') (A')
                 (A") (A') (A")
       Virtual   (A') (A') (A') (A') (A') (A") (A') (A') (A") (A')
                 (A") (A') (A') (A") (A') (A') (A") (A') (A') (A")
                 (A') (A') (A") (A')
 ExpMin= 1.22D-01 ExpMax= 1.04D+04 ExpMxC= 1.57D+03 IAcc=2 IRadAn=         4 AccDes= 0.00D+00
 Harris functional with IExCor=  402 and IRadAn=       4 diagonalized for initial guess.
 HarFok:  IExCor=  402 AccDes= 0.00D+00 IRadAn=         4 IDoV= 1 UseB2=F ITyADJ=14
 ICtDFT=  3500011 ScaDFX=  1.000000  1.000000  1.000000  1.000000
 FoFCou: FMM=F IPFlag=           0 FMFlag=      100000 FMFlg1=           0
         NFxFlg=           0 DoJE=T BraDBF=F KetDBF=T FulRan=T
         wScrn=  0.000000 ICntrl=       500 IOpCl=  0 I1Cent=   200000004 NGrid=           0
         NMat0=    1 NMatS0=      1 NMatT0=    0 NMatD0=    1 NMtDS0=    0 NMtDT0=    0
 Petite list used in FoFCou.
 Keep R1 ints in memory in symmetry-blocked form, NReq=7153137.
 Requested convergence on RMS density matrix=1.00D-08 within 128 cycles.
 Requested convergence on MAX density matrix=1.00D-06.
 Requested convergence on             energy=1.00D-06.
 No special actions if energy rises.
 Integral accuracy reduced to 1.0D-05 until final iterations.
 Initial convergence to 1.0D-05 achieved.  Increase integral accuracy.
 SCF Done:  E(RB3LYP) =  -535.709540758     A.U. after   14 cycles
            NFock= 14  Conv=0.21D-08     -V/T= 2.0032
 Calling FoFJK, ICntrl=      2127 FMM=F ISym2X=1 I1Cent= 0 IOpClX= 0 NMat=1 NMatS=1 NMatT=0.
 ***** Axes restored to original set *****
 -------------------------------------------------------------------
 Center     Atomic                   Forces (Hartrees/Bohr)
 Number     Number              X              Y              Z
 -------------------------------------------------------------------
      1        8          -0.021111875   -0.018252203    0.058613438
      2       17           0.021751681    0.018574992   -0.060254194
      3        1          -0.000639806   -0.000322789    0.001640756
 -------------------------------------------------------------------
 Cartesian Forces:  Max     0.060254194 RMS     0.031031040

 GradGradGradGradGradGradGradGradGradGradGradGradGradGradGradGradGradGrad
 Berny optimization.
 FormGI is forming the generalized inverse of G from B-inverse, IUseBI=4.
 Internal  Forces:  Max     0.066694990 RMS     0.038553145
 Search for a saddle point.
 Step number   3 out of a maximum of  100
 All quantities printed in internal units (Hartrees-Bohrs-Radians)
 Swapping is turned off.
 Update second derivatives using D2CorX and points    1    2    3
 The second derivative matrix:
                          R1        R2        A1
           R1           0.00237
           R2          -0.01126   0.59174
           A1           0.00845   0.00027   0.10656
 ITU=  0  0  0
     Eigenvalues ---    0.00148   0.10724   0.59195
 Eigenvectors required to have negative eigenvalues:
                          R1        A1        R2
   1                   -0.99660   0.08020  -0.01905
 RFO step:  Lambda0=6.695299539D-02 Lambda=-6.89254394D-04.
 Linear search not attempted -- option 19 set.
 Iteration  1 RMS(Cart)=  0.06002031 RMS(Int)=  0.00297825
 Iteration  2 RMS(Cart)=  0.00230768 RMS(Int)=  0.00000172
 Iteration  3 RMS(Cart)=  0.00000214 RMS(Int)=  0.00000000
 Iteration  4 RMS(Cart)=  0.00000000 RMS(Int)=  0.00000000
 ClnCor:  largest displacement from symmetrization is 3.97D-15 for atom     3.
 Variable       Old X    -DE/DX   Delta X   Delta X   Delta X     New X
                                 (Linear)    (Quad)   (Total)
    R1        4.26279  -0.06669   0.00000   0.07313   0.07313   4.33593
    R2        1.85147  -0.00028   0.00000   0.00309   0.00309   1.85456
    A1        1.61239  -0.00328   0.00000  -0.08596  -0.08596   1.52642
         Item               Value     Threshold  Converged?
 Maximum Force            0.066695     0.000450     NO 
 RMS     Force            0.038553     0.000300     NO 
 Maximum Displacement     0.064281     0.001800     NO 
 RMS     Displacement     0.060708     0.001200     NO 
 Predicted change in Energy= 4.943818D-03
 GradGradGradGradGradGradGradGradGradGradGradGradGradGradGradGradGradGrad

                          Input orientation:                          
 ---------------------------------------------------------------------
 Center     Atomic      Atomic             Coordinates (Angstroms)
 Number     Number       Type             X           Y           Z
 ---------------------------------------------------------------------
      1          8           0       -1.330300    1.536280   -1.777371
      2         17           0       -2.062153    0.849873    0.286083
      3          1           0       -1.025343    0.615566   -1.927080
 ---------------------------------------------------------------------
                    Distance matrix (angstroms):
                    1          2          3
     1  O    0.000000
     2  Cl   2.294473   0.000000
     3  H    0.981390   2.455192   0.000000
 Stoichiometry    ClHO
 Framework group  CS[SG(ClHO)]
 Deg. of freedom     3
 Full point group                 CS      NOp   2
 Largest Abelian subgroup         CS      NOp   2
 Largest concise Abelian subgroup C1      NOp   1
                         Standard orientation:                         
 ---------------------------------------------------------------------
 Center     Atomic      Atomic             Coordinates (Angstroms)
 Number     Number       Type             X           Y           Z
 ---------------------------------------------------------------------
      1          8           0        0.037709    1.501907    0.000000
      2         17           0        0.037709   -0.792566    0.000000
      3          1           0       -0.942715    1.458375    0.000000
 ---------------------------------------------------------------------
 Rotational constants (GHZ):         553.6627166           8.4045175           8.2788458
 Standard basis: SVP (5D, 7F)
 There are    29 symmetry adapted cartesian basis functions of A'  symmetry.
 There are    10 symmetry adapted cartesian basis functions of A"  symmetry.
 There are    27 symmetry adapted basis functions of A'  symmetry.
 There are    10 symmetry adapted basis functions of A"  symmetry.
    37 basis functions,    69 primitive gaussians,    39 cartesian basis functions
    13 alpha electrons       13 beta electrons
       nuclear repulsion energy        39.3436231867 Hartrees.
 NAtoms=    3 NActive=    3 NUniq=    3 SFac= 1.00D+00 NAtFMM=   60 NAOKFM=F Big=F
 Integral buffers will be    131072 words long.
 Raffenetti 2 integral format.
 Two-electron integral symmetry is turned on.
 Nuclear repulsion after empirical dispersion term =       39.3419578618 Hartrees.
 One-electron integrals computed using PRISM.
 NBasis=    37 RedAO= T EigKep=  5.33D-02  NBF=    27    10
 NBsUse=    37 1.00D-06 EigRej= -1.00D+00 NBFU=    27    10
 Initial guess from the checkpoint file:  "/tmp/Gau-10682.chk"
 B after Tr=     0.000000   -0.000000   -0.000000
         Rot=    1.000000   -0.000000   -0.000000   -0.000906 Ang=  -0.10 deg.
 Initial guess orbital symmetries:
       Occupied  (A') (A') (A') (A') (A') (A") (A') (A') (A') (A')
                 (A") (A') (A")
       Virtual   (A') (A') (A') (A') (A') (A") (A') (A') (A") (A')
                 (A") (A') (A') (A") (A') (A') (A") (A') (A') (A")
                 (A') (A') (A") (A')
 ExpMin= 1.22D-01 ExpMax= 1.04D+04 ExpMxC= 1.57D+03 IAcc=2 IRadAn=         4 AccDes= 0.00D+00
 Harris functional with IExCor=  402 and IRadAn=       4 diagonalized for initial guess.
 HarFok:  IExCor=  402 AccDes= 0.00D+00 IRadAn=         4 IDoV= 1 UseB2=F ITyADJ=14
 ICtDFT=  3500011 ScaDFX=  1.000000  1.000000  1.000000  1.000000
 FoFCou: FMM=F IPFlag=           0 FMFlag=      100000 FMFlg1=           0
         NFxFlg=           0 DoJE=T BraDBF=F KetDBF=T FulRan=T
         wScrn=  0.000000 ICntrl=       500 IOpCl=  0 I1Cent=   200000004 NGrid=           0
         NMat0=    1 NMatS0=      1 NMatT0=    0 NMatD0=    1 NMtDS0=    0 NMtDT0=    0
 Petite list used in FoFCou.
 Keep R1 ints in memory in symmetry-blocked form, NReq=7153137.
 Requested convergence on RMS density matrix=1.00D-08 within 128 cycles.
 Requested convergence on MAX density matrix=1.00D-06.
 Requested convergence on             energy=1.00D-06.
 No special actions if energy rises.
 Integral accuracy reduced to 1.0D-05 until final iterations.
 Initial convergence to 1.0D-05 achieved.  Increase integral accuracy.
 SCF Done:  E(RB3LYP) =  -535.704664280     A.U. after   13 cycles
            NFock= 13  Conv=0.20D-08     -V/T= 2.0032
 Calling FoFJK, ICntrl=      2127 FMM=F ISym2X=1 I1Cent= 0 IOpClX= 0 NMat=1 NMatS=1 NMatT=0.
 ***** Axes restored to original set *****
 -------------------------------------------------------------------
 Center     Atomic                   Forces (Hartrees/Bohr)
 Number     Number              X              Y              Z
 -------------------------------------------------------------------
      1        8          -0.020744055   -0.022505119    0.060282053
      2       17           0.020469689    0.020411425   -0.058427853
      3        1           0.000274365    0.002093694   -0.001854200
 -------------------------------------------------------------------
 Cartesian Forces:  Max     0.060282053 RMS     0.031319265

 GradGradGradGradGradGradGradGradGradGradGradGradGradGradGradGradGradGrad
 Berny optimization.
 FormGI is forming the generalized inverse of G from B-inverse, IUseBI=4.
 Internal  Forces:  Max     0.065181054 RMS     0.037724832
 Search for a saddle point.
 Step number   4 out of a maximum of  100
 All quantities printed in internal units (Hartrees-Bohrs-Radians)
 Swapping is turned off.
 Update second derivatives using D2CorX and points    2    3    4
 The second derivative matrix:
                          R1        R2        A1
           R1          -0.00332
           R2          -0.00922   0.59108
           A1           0.01446  -0.00189   0.10022
 ITU=  0  0  0  0
     Eigenvalues ---   -0.00543   0.10218   0.59123
 Eigenvectors required to have negative eigenvalues:
                          R1        A1        R2
   1                   -0.99069   0.13532  -0.01489
 RFO step:  Lambda0=6.251974636D-02 Lambda=-2.05271558D-04.
 Linear search not attempted -- option 19 set.
 Maximum step size (   0.300) exceeded in Quadratic search.
    -- Step size scaled by   0.312
 Iteration  1 RMS(Cart)=  0.08163372 RMS(Int)=  0.05489578
 Iteration  2 RMS(Cart)=  0.04384182 RMS(Int)=  0.00005232
 Iteration  3 RMS(Cart)=  0.00007239 RMS(Int)=  0.00000000
 Iteration  4 RMS(Cart)=  0.00000000 RMS(Int)=  0.00000000
 ClnCor:  largest displacement from symmetrization is 2.26D-15 for atom     1.
 Variable       Old X    -DE/DX   Delta X   Delta X   Delta X     New X
                                 (Linear)    (Quad)   (Total)
    R1        4.33593  -0.06518   0.00000   0.29500   0.29500   4.63093
    R2        1.85456  -0.00159   0.00000   0.00406   0.00406   1.85862
    A1        1.52642   0.00429   0.00000  -0.05439  -0.05439   1.47203
         Item               Value     Threshold  Converged?
 Maximum Force            0.065181     0.000450     NO 
 RMS     Force            0.037725     0.000300     NO 
 Maximum Displacement     0.146475     0.001800     NO 
 RMS     Displacement     0.122080     0.001200     NO 
 Predicted change in Energy= 1.923426D-02
 GradGradGradGradGradGradGradGradGradGradGradGradGradGradGradGradGradGrad

                          Input orientation:                          
 ---------------------------------------------------------------------
 Center     Atomic      Atomic             Coordinates (Angstroms)
 Number     Number       Type             X           Y           Z
 ---------------------------------------------------------------------
      1          8           0       -1.306347    1.553952   -1.842085
      2         17           0       -2.091114    0.829752    0.363594
      3          1           0       -1.020334    0.618014   -1.939878
 ---------------------------------------------------------------------
                    Distance matrix (angstroms):
                    1          2          3
     1  O    0.000000
     2  Cl   2.450581   0.000000
     3  H    0.983538   2.548997   0.000000
 Stoichiometry    ClHO
 Framework group  CS[SG(ClHO)]
 Deg. of freedom     3
 Full point group                 CS      NOp   2
 Largest Abelian subgroup         CS      NOp   2
 Largest concise Abelian subgroup C1      NOp   1
                         Standard orientation:                         
 ---------------------------------------------------------------------
 Center     Atomic      Atomic             Coordinates (Angstroms)
 Number     Number       Type             X           Y           Z
 ---------------------------------------------------------------------
      1          8           0        0.037644    1.606033    0.000000
      2         17           0        0.037644   -0.844548   -0.000000
      3          1           0       -0.941101    1.509054    0.000000
 ---------------------------------------------------------------------
 Rotational constants (GHZ):         554.2009094           7.3859636           7.2888237
 Standard basis: SVP (5D, 7F)
 There are    29 symmetry adapted cartesian basis functions of A'  symmetry.
 There are    10 symmetry adapted cartesian basis functions of A"  symmetry.
 There are    27 symmetry adapted basis functions of A'  symmetry.
 There are    10 symmetry adapted basis functions of A"  symmetry.
    37 basis functions,    69 primitive gaussians,    39 cartesian basis functions
    13 alpha electrons       13 beta electrons
       nuclear repulsion energy        37.2012848473 Hartrees.
 NAtoms=    3 NActive=    3 NUniq=    3 SFac= 1.00D+00 NAtFMM=   60 NAOKFM=F Big=F
 Integral buffers will be    131072 words long.
 Raffenetti 2 integral format.
 Two-electron integral symmetry is turned on.
 Nuclear repulsion after empirical dispersion term =       37.1996458500 Hartrees.
 One-electron integrals computed using PRISM.
 NBasis=    37 RedAO= T EigKep=  5.48D-02  NBF=    27    10
 NBsUse=    37 1.00D-06 EigRej= -1.00D+00 NBFU=    27    10
 Initial guess from the checkpoint file:  "/tmp/Gau-10682.chk"
 B after Tr=    -0.000000    0.000000    0.000000
         Rot=    1.000000   -0.000000    0.000000    0.000771 Ang=   0.09 deg.
 Initial guess orbital symmetries:
       Occupied  (A') (A') (A') (A') (A') (A") (A') (A') (A') (A')
                 (A") (A') (A")
       Virtual   (A') (A') (A') (A') (A') (A") (A') (A') (A") (A')
                 (A") (A') (A') (A") (A') (A') (A") (A') (A') (A")
                 (A') (A') (A") (A')
 ExpMin= 1.22D-01 ExpMax= 1.04D+04 ExpMxC= 1.57D+03 IAcc=2 IRadAn=         4 AccDes= 0.00D+00
 Harris functional with IExCor=  402 and IRadAn=       4 diagonalized for initial guess.
 HarFok:  IExCor=  402 AccDes= 0.00D+00 IRadAn=         4 IDoV= 1 UseB2=F ITyADJ=14
 ICtDFT=  3500011 ScaDFX=  1.000000  1.000000  1.000000  1.000000
 FoFCou: FMM=F IPFlag=           0 FMFlag=      100000 FMFlg1=           0
         NFxFlg=           0 DoJE=T BraDBF=F KetDBF=T FulRan=T
         wScrn=  0.000000 ICntrl=       500 IOpCl=  0 I1Cent=   200000004 NGrid=           0
         NMat0=    1 NMatS0=      1 NMatT0=    0 NMatD0=    1 NMtDS0=    0 NMtDT0=    0
 Petite list used in FoFCou.
 Keep R1 ints in memory in symmetry-blocked form, NReq=7153137.
 Requested convergence on RMS density matrix=1.00D-08 within 128 cycles.
 Requested convergence on MAX density matrix=1.00D-06.
 Requested convergence on             energy=1.00D-06.
 No special actions if energy rises.
 Integral accuracy reduced to 1.0D-05 until final iterations.
 Initial convergence to 1.0D-05 achieved.  Increase integral accuracy.
 SCF Done:  E(RB3LYP) =  -535.685675306     A.U. after   12 cycles
            NFock= 12  Conv=0.51D-08     -V/T= 2.0032
 Calling FoFJK, ICntrl=      2127 FMM=F ISym2X=1 I1Cent= 0 IOpClX= 0 NMat=1 NMatS=1 NMatT=0.
 ***** Axes restored to original set *****
 -------------------------------------------------------------------
 Center     Atomic                   Forces (Hartrees/Bohr)
 Number     Number              X              Y              Z
 -------------------------------------------------------------------
      1        8          -0.019373597   -0.022151592    0.056966404
      2       17           0.019325258    0.019026281   -0.055017667
      3        1           0.000048340    0.003125310   -0.001948737
 -------------------------------------------------------------------
 Cartesian Forces:  Max     0.056966404 RMS     0.029603259

 GradGradGradGradGradGradGradGradGradGradGradGradGradGradGradGradGradGrad
 Berny optimization.
 FormGI is forming the generalized inverse of G from B-inverse, IUseBI=4.
 Internal  Forces:  Max     0.061331369 RMS     0.035541512
 Search for a saddle point.
 Step number   5 out of a maximum of  100
 All quantities printed in internal units (Hartrees-Bohrs-Radians)
 Swapping is turned off.
 Update second derivatives using D2CorX and points    3    4    5
 The second derivative matrix:
                          R1        R2        A1
           R1          -0.00976
           R2          -0.00483   0.58907
           A1           0.01749  -0.00375   0.09885
 ITU=  0  0  0  0
     Eigenvalues ---   -0.01254   0.10155   0.58914
 Eigenvectors required to have negative eigenvalues:
                          R1        A1        R2
   1                   -0.98791   0.15490  -0.00697
 RFO step:  Lambda0=5.536076833D-02 Lambda=-2.60161765D-04.
 Linear search not attempted -- option 19 set.
 Maximum step size (   0.300) exceeded in Quadratic search.
    -- Step size scaled by   0.332
 Iteration  1 RMS(Cart)=  0.08213741 RMS(Int)=  0.05397542
 Iteration  2 RMS(Cart)=  0.04324970 RMS(Int)=  0.00004575
 Iteration  3 RMS(Cart)=  0.00006457 RMS(Int)=  0.00000000
 Iteration  4 RMS(Cart)=  0.00000000 RMS(Int)=  0.00000000
 ClnCor:  largest displacement from symmetrization is 1.66D-15 for atom     3.
 Variable       Old X    -DE/DX   Delta X   Delta X   Delta X     New X
                                 (Linear)    (Quad)   (Total)
    R1        4.63093  -0.06133   0.00000   0.29338   0.29338   4.92431
    R2        1.85862  -0.00276   0.00000   0.00065   0.00065   1.85927
    A1        1.47203   0.00452   0.00000  -0.06267  -0.06267   1.40936
         Item               Value     Threshold  Converged?
 Maximum Force            0.061331     0.000450     NO 
 RMS     Force            0.035542     0.000300     NO 
 Maximum Displacement     0.140610     0.001800     NO 
 RMS     Displacement     0.120573     0.001200     NO 
 Predicted change in Energy= 1.773030D-02
 GradGradGradGradGradGradGradGradGradGradGradGradGradGradGradGradGradGrad

                          Input orientation:                          
 ---------------------------------------------------------------------
 Center     Atomic      Atomic             Coordinates (Angstroms)
 Number     Number       Type             X           Y           Z
 ---------------------------------------------------------------------
      1          8           0       -1.281056    1.570327   -1.909072
      2         17           0       -2.118399    0.808450    0.438002
      3          1           0       -1.018340    0.622941   -1.947299
 ---------------------------------------------------------------------
                    Distance matrix (angstroms):
                    1          2          3
     1  O    0.000000
     2  Cl   2.605831   0.000000
     3  H    0.983881   2.633287   0.000000
 Stoichiometry    ClHO
 Framework group  CS[SG(ClHO)]
 Deg. of freedom     3
 Full point group                 CS      NOp   2
 Largest Abelian subgroup         CS      NOp   2
 Largest concise Abelian subgroup C1      NOp   1
                         Standard orientation:                         
 ---------------------------------------------------------------------
 Center     Atomic      Atomic             Coordinates (Angstroms)
 Number     Number       Type             X           Y           Z
 ---------------------------------------------------------------------
      1          8           0        0.037350    1.709895   -0.000000
      2         17           0        0.037350   -0.895936   -0.000000
      3          1           0       -0.933739    1.551754    0.000000
 ---------------------------------------------------------------------
 Rotational constants (GHZ):         561.6107763           6.5479674           6.4725028
 Standard basis: SVP (5D, 7F)
 There are    29 symmetry adapted cartesian basis functions of A'  symmetry.
 There are    10 symmetry adapted cartesian basis functions of A"  symmetry.
 There are    27 symmetry adapted basis functions of A'  symmetry.
 There are    10 symmetry adapted basis functions of A"  symmetry.
    37 basis functions,    69 primitive gaussians,    39 cartesian basis functions
    13 alpha electrons       13 beta electrons
       nuclear repulsion energy        35.3371439131 Hartrees.
 NAtoms=    3 NActive=    3 NUniq=    3 SFac= 1.00D+00 NAtFMM=   60 NAOKFM=F Big=F
 Integral buffers will be    131072 words long.
 Raffenetti 2 integral format.
 Two-electron integral symmetry is turned on.
 Nuclear repulsion after empirical dispersion term =       35.3355531275 Hartrees.
 One-electron integrals computed using PRISM.
 NBasis=    37 RedAO= T EigKep=  5.54D-02  NBF=    27    10
 NBsUse=    37 1.00D-06 EigRej= -1.00D+00 NBFU=    27    10
 Initial guess from the checkpoint file:  "/tmp/Gau-10682.chk"
 B after Tr=     0.000000   -0.000000    0.000000
         Rot=    1.000000    0.000000    0.000000    0.000700 Ang=   0.08 deg.
 Initial guess orbital symmetries:
       Occupied  (A') (A') (A') (A') (A') (A") (A') (A') (A') (A')
                 (A") (A') (A")
       Virtual   (A') (A') (A') (A') (A') (A") (A') (A') (A") (A')
                 (A") (A') (A') (A") (A') (A') (A") (A') (A') (A")
                 (A') (A') (A") (A')
 ExpMin= 1.22D-01 ExpMax= 1.04D+04 ExpMxC= 1.57D+03 IAcc=2 IRadAn=         4 AccDes= 0.00D+00
 Harris functional with IExCor=  402 and IRadAn=       4 diagonalized for initial guess.
 HarFok:  IExCor=  402 AccDes= 0.00D+00 IRadAn=         4 IDoV= 1 UseB2=F ITyADJ=14
 ICtDFT=  3500011 ScaDFX=  1.000000  1.000000  1.000000  1.000000
 FoFCou: FMM=F IPFlag=           0 FMFlag=      100000 FMFlg1=           0
         NFxFlg=           0 DoJE=T BraDBF=F KetDBF=T FulRan=T
         wScrn=  0.000000 ICntrl=       500 IOpCl=  0 I1Cent=   200000004 NGrid=           0
         NMat0=    1 NMatS0=      1 NMatT0=    0 NMatD0=    1 NMtDS0=    0 NMtDT0=    0
 Petite list used in FoFCou.
 Keep R1 ints in memory in symmetry-blocked form, NReq=7153137.
 Requested convergence on RMS density matrix=1.00D-08 within 128 cycles.
 Requested convergence on MAX density matrix=1.00D-06.
 Requested convergence on             energy=1.00D-06.
 No special actions if energy rises.
 Integral accuracy reduced to 1.0D-05 until final iterations.
 Initial convergence to 1.0D-05 achieved.  Increase integral accuracy.
 SCF Done:  E(RB3LYP) =  -535.668248302     A.U. after   14 cycles
            NFock= 14  Conv=0.28D-08     -V/T= 2.0031
 Calling FoFJK, ICntrl=      2127 FMM=F ISym2X=1 I1Cent= 0 IOpClX= 0 NMat=1 NMatS=1 NMatT=0.
 ***** Axes restored to original set *****
 -------------------------------------------------------------------
 Center     Atomic                   Forces (Hartrees/Bohr)
 Number     Number              X              Y              Z
 -------------------------------------------------------------------
      1        8          -0.017743275   -0.019909204    0.051949971
      2       17           0.017361293    0.017107547   -0.049435133
      3        1           0.000381982    0.002801657   -0.002514838
 -------------------------------------------------------------------
 Cartesian Forces:  Max     0.051949971 RMS     0.026796008

 GradGradGradGradGradGradGradGradGradGradGradGradGradGradGradGradGradGrad
 Berny optimization.
 FormGI is forming the generalized inverse of G from B-inverse, IUseBI=4.
 Internal  Forces:  Max     0.055106873 RMS     0.031994456
 Search for a saddle point.
 Step number   6 out of a maximum of  100
 All quantities printed in internal units (Hartrees-Bohrs-Radians)
 Swapping is turned off.
 Second derivative matrix not updated -- analytic derivatives used.
 The second derivative matrix:
                          R1        R2        A1
           R1          -0.00976
           R2          -0.00483   0.58907
           A1           0.01749  -0.00375   0.09885
 ITU=  0  0  0  0
     Eigenvalues ---   -0.01254   0.10155   0.58914
 Eigenvectors required to have negative eigenvalues:
                          R1        A1        R2
   1                   -0.98791   0.15490  -0.00697
 RFO step:  Lambda0=4.936305362D-02 Lambda=-1.16726738D-04.
 Linear search not attempted -- option 19 set.
 Maximum step size (   0.300) exceeded in Quadratic search.
    -- Step size scaled by   0.336
 Iteration  1 RMS(Cart)=  0.08199720 RMS(Int)=  0.05460040
 Iteration  2 RMS(Cart)=  0.04390493 RMS(Int)=  0.00003938
 Iteration  3 RMS(Cart)=  0.00005659 RMS(Int)=  0.00000000
 Iteration  4 RMS(Cart)=  0.00000000 RMS(Int)=  0.00000000
 ClnCor:  largest displacement from symmetrization is 2.26D-15 for atom     1.
 Variable       Old X    -DE/DX   Delta X   Delta X   Delta X     New X
                                 (Linear)    (Quad)   (Total)
    R1        4.92431  -0.05511   0.00000   0.29447   0.29447   5.21878
    R2        1.85927  -0.00250   0.00000   0.00080   0.00080   1.86007
    A1        1.40936   0.00528   0.00000  -0.05731  -0.05731   1.35206
         Item               Value     Threshold  Converged?
 Maximum Force            0.055107     0.000450     NO 
 RMS     Force            0.031994     0.000300     NO 
 Maximum Displacement     0.144462     0.001800     NO 
 RMS     Displacement     0.121737     0.001200     NO 
 Predicted change in Energy= 1.597569D-02
 GradGradGradGradGradGradGradGradGradGradGradGradGradGradGradGradGradGrad

                          Input orientation:                          
 ---------------------------------------------------------------------
 Center     Atomic      Atomic             Coordinates (Angstroms)
 Number     Number       Type             X           Y           Z
 ---------------------------------------------------------------------
      1          8           0       -1.255519    1.584216   -1.975152
      2         17           0       -2.146735    0.787729    0.514448
      3          1           0       -1.015542    0.629773   -1.957664
 ---------------------------------------------------------------------
                    Distance matrix (angstroms):
                    1          2          3
     1  O    0.000000
     2  Cl   2.761660   0.000000
     3  H    0.984305   2.723212   0.000000
 Stoichiometry    ClHO
 Framework group  CS[SG(ClHO)]
 Deg. of freedom     3
 Full point group                 CS      NOp   2
 Largest Abelian subgroup         CS      NOp   2
 Largest concise Abelian subgroup C1      NOp   1
                         Standard orientation:                         
 ---------------------------------------------------------------------
 Center     Atomic      Atomic             Coordinates (Angstroms)
 Number     Number       Type             X           Y           Z
 ---------------------------------------------------------------------
      1          8           0        0.036956    1.813916    0.000000
      2         17           0        0.036956   -0.947744   -0.000000
      3          1           0       -0.923895    1.600323    0.000000
 ---------------------------------------------------------------------
 Rotational constants (GHZ):         572.5751879           5.8407269           5.7817484
 Standard basis: SVP (5D, 7F)
 There are    29 symmetry adapted cartesian basis functions of A'  symmetry.
 There are    10 symmetry adapted cartesian basis functions of A"  symmetry.
 There are    27 symmetry adapted basis functions of A'  symmetry.
 There are    10 symmetry adapted basis functions of A"  symmetry.
    37 basis functions,    69 primitive gaussians,    39 cartesian basis functions
    13 alpha electrons       13 beta electrons
       nuclear repulsion energy        33.6641012339 Hartrees.
 NAtoms=    3 NActive=    3 NUniq=    3 SFac= 1.00D+00 NAtFMM=   60 NAOKFM=F Big=F
 Integral buffers will be    131072 words long.
 Raffenetti 2 integral format.
 Two-electron integral symmetry is turned on.
 Nuclear repulsion after empirical dispersion term =       33.6625754934 Hartrees.
 One-electron integrals computed using PRISM.
 NBasis=    37 RedAO= T EigKep=  5.57D-02  NBF=    27    10
 NBsUse=    37 1.00D-06 EigRej= -1.00D+00 NBFU=    27    10
 Initial guess from the checkpoint file:  "/tmp/Gau-10682.chk"
 B after Tr=     0.000000    0.000000   -0.000000
         Rot=    1.000000   -0.000000    0.000000    0.000740 Ang=   0.08 deg.
 Initial guess orbital symmetries:
       Occupied  (A') (A') (A') (A') (A') (A") (A') (A') (A') (A')
                 (A") (A') (A")
       Virtual   (A') (A') (A') (A') (A') (A") (A') (A") (A') (A')
                 (A") (A') (A') (A") (A') (A') (A") (A') (A') (A")
                 (A') (A') (A") (A')
 ExpMin= 1.22D-01 ExpMax= 1.04D+04 ExpMxC= 1.57D+03 IAcc=2 IRadAn=         4 AccDes= 0.00D+00
 Harris functional with IExCor=  402 and IRadAn=       4 diagonalized for initial guess.
 HarFok:  IExCor=  402 AccDes= 0.00D+00 IRadAn=         4 IDoV= 1 UseB2=F ITyADJ=14
 ICtDFT=  3500011 ScaDFX=  1.000000  1.000000  1.000000  1.000000
 FoFCou: FMM=F IPFlag=           0 FMFlag=      100000 FMFlg1=           0
         NFxFlg=           0 DoJE=T BraDBF=F KetDBF=T FulRan=T
         wScrn=  0.000000 ICntrl=       500 IOpCl=  0 I1Cent=   200000004 NGrid=           0
         NMat0=    1 NMatS0=      1 NMatT0=    0 NMatD0=    1 NMtDS0=    0 NMtDT0=    0
 Petite list used in FoFCou.
 Keep R1 ints in memory in symmetry-blocked form, NReq=7153137.
 Requested convergence on RMS density matrix=1.00D-08 within 128 cycles.
 Requested convergence on MAX density matrix=1.00D-06.
 Requested convergence on             energy=1.00D-06.
 No special actions if energy rises.
 Integral accuracy reduced to 1.0D-05 until final iterations.
 Initial convergence to 1.0D-05 achieved.  Increase integral accuracy.
 SCF Done:  E(RB3LYP) =  -535.652743212     A.U. after   15 cycles
            NFock= 15  Conv=0.12D-08     -V/T= 2.0031
 Calling FoFJK, ICntrl=      2127 FMM=F ISym2X=1 I1Cent= 0 IOpClX= 0 NMat=1 NMatS=1 NMatT=0.
 ***** Axes restored to original set *****
 -------------------------------------------------------------------
 Center     Atomic                   Forces (Hartrees/Bohr)
 Number     Number              X              Y              Z
 -------------------------------------------------------------------
      1        8          -0.015698418   -0.017430887    0.045854714
      2       17           0.015159847    0.014831175   -0.043103635
      3        1           0.000538571    0.002599712   -0.002751079
 -------------------------------------------------------------------
 Cartesian Forces:  Max     0.045854714 RMS     0.023511832

 GradGradGradGradGradGradGradGradGradGradGradGradGradGradGradGradGradGrad
 Berny optimization.
 FormGI is forming the generalized inverse of G from B-inverse, IUseBI=4.
 Internal  Forces:  Max     0.048026237 RMS     0.027943397
 Search for a saddle point.
 Step number   7 out of a maximum of  100
 All quantities printed in internal units (Hartrees-Bohrs-Radians)
 Swapping is turned off.
 Update second derivatives using D2CorX and points    5    6    7
 The second derivative matrix:
                          R1        R2        A1
           R1          -0.02043
           R2          -0.00258   0.58862
           A1           0.01856  -0.00400   0.09874
 ITU=  0  0  0  0
     Eigenvalues ---   -0.02326   0.10152   0.58866
 Eigenvectors required to have negative eigenvalues:
                          R1        A1        R2
   1                   -0.98863   0.15034  -0.00318
 RFO step:  Lambda0=3.806309538D-02 Lambda=-4.15025492D-05.
 Linear search not attempted -- option 19 set.
 Maximum step size (   0.300) exceeded in Quadratic search.
    -- Step size scaled by   0.381
 Iteration  1 RMS(Cart)=  0.08214448 RMS(Int)=  0.05517233
 Iteration  2 RMS(Cart)=  0.04450995 RMS(Int)=  0.00003378
 Iteration  3 RMS(Cart)=  0.00004926 RMS(Int)=  0.00000000
 Iteration  4 RMS(Cart)=  0.00000000 RMS(Int)=  0.00000000
 ClnCor:  largest displacement from symmetrization is 1.33D-15 for atom     1.
 Variable       Old X    -DE/DX   Delta X   Delta X   Delta X     New X
                                 (Linear)    (Quad)   (Total)
    R1        5.21878  -0.04803   0.00000   0.29549   0.29549   5.51427
    R2        1.86007  -0.00244   0.00000  -0.00058  -0.00058   1.85949
    A1        1.35206   0.00548   0.00000  -0.05184  -0.05184   1.30022
         Item               Value     Threshold  Converged?
 Maximum Force            0.048026     0.000450     NO 
 RMS     Force            0.027943     0.000300     NO 
 Maximum Displacement     0.148537     0.001800     NO 
 RMS     Displacement     0.123146     0.001200     NO 
 Predicted change in Energy= 1.343079D-02
 GradGradGradGradGradGradGradGradGradGradGradGradGradGradGradGradGradGrad

                          Input orientation:                          
 ---------------------------------------------------------------------
 Center     Atomic      Atomic             Coordinates (Angstroms)
 Number     Number       Type             X           Y           Z
 ---------------------------------------------------------------------
      1          8           0       -1.229819    1.595608   -2.040133
      2         17           0       -2.176168    0.767574    0.593050
      3          1           0       -1.011809    0.638536   -1.971286
 ---------------------------------------------------------------------
                    Distance matrix (angstroms):
                    1          2          3
     1  O    0.000000
     2  Cl   2.918025   0.000000
     3  H    0.984000   2.819255   0.000000
 Stoichiometry    ClHO
 Framework group  CS[SG(ClHO)]
 Deg. of freedom     3
 Full point group                 CS      NOp   2
 Largest Abelian subgroup         CS      NOp   2
 Largest concise Abelian subgroup C1      NOp   1
                         Standard orientation:                         
 ---------------------------------------------------------------------
 Center     Atomic      Atomic             Coordinates (Angstroms)
 Number     Number       Type             X           Y           Z
 ---------------------------------------------------------------------
      1          8           0        0.036469    1.918055   -0.000000
      2         17           0        0.036469   -0.999970    0.000000
      3          1           0       -0.911731    1.655047   -0.000000
 ---------------------------------------------------------------------
 Rotational constants (GHZ):         587.1332930           5.2388644           5.1925325
 Standard basis: SVP (5D, 7F)
 There are    29 symmetry adapted cartesian basis functions of A'  symmetry.
 There are    10 symmetry adapted cartesian basis functions of A"  symmetry.
 There are    27 symmetry adapted basis functions of A'  symmetry.
 There are    10 symmetry adapted basis functions of A"  symmetry.
    37 basis functions,    69 primitive gaussians,    39 cartesian basis functions
    13 alpha electrons       13 beta electrons
       nuclear repulsion energy        32.1564592795 Hartrees.
 NAtoms=    3 NActive=    3 NUniq=    3 SFac= 1.00D+00 NAtFMM=   60 NAOKFM=F Big=F
 Integral buffers will be    131072 words long.
 Raffenetti 2 integral format.
 Two-electron integral symmetry is turned on.
 Nuclear repulsion after empirical dispersion term =       32.1550147848 Hartrees.
 One-electron integrals computed using PRISM.
 NBasis=    37 RedAO= T EigKep=  5.56D-02  NBF=    27    10
 NBsUse=    37 1.00D-06 EigRej= -1.00D+00 NBFU=    27    10
 Initial guess from the checkpoint file:  "/tmp/Gau-10682.chk"
 B after Tr=    -0.000000   -0.000000   -0.000000
         Rot=    1.000000    0.000000   -0.000000    0.000767 Ang=   0.09 deg.
 Initial guess orbital symmetries:
       Occupied  (A') (A') (A') (A') (A') (A") (A') (A') (A') (A')
                 (A") (A') (A")
       Virtual   (A') (A') (A') (A') (A') (A") (A') (A") (A') (A')
                 (A") (A') (A') (A") (A') (A') (A') (A") (A') (A")
                 (A') (A') (A") (A')
 ExpMin= 1.22D-01 ExpMax= 1.04D+04 ExpMxC= 1.57D+03 IAcc=2 IRadAn=         4 AccDes= 0.00D+00
 Harris functional with IExCor=  402 and IRadAn=       4 diagonalized for initial guess.
 HarFok:  IExCor=  402 AccDes= 0.00D+00 IRadAn=         4 IDoV= 1 UseB2=F ITyADJ=14
 ICtDFT=  3500011 ScaDFX=  1.000000  1.000000  1.000000  1.000000
 FoFCou: FMM=F IPFlag=           0 FMFlag=      100000 FMFlg1=           0
         NFxFlg=           0 DoJE=T BraDBF=F KetDBF=T FulRan=T
         wScrn=  0.000000 ICntrl=       500 IOpCl=  0 I1Cent=   200000004 NGrid=           0
         NMat0=    1 NMatS0=      1 NMatT0=    0 NMatD0=    1 NMtDS0=    0 NMtDT0=    0
 Petite list used in FoFCou.
 Keep R1 ints in memory in symmetry-blocked form, NReq=7153137.
 Requested convergence on RMS density matrix=1.00D-08 within 128 cycles.
 Requested convergence on MAX density matrix=1.00D-06.
 Requested convergence on             energy=1.00D-06.
 No special actions if energy rises.
 Integral accuracy reduced to 1.0D-05 until final iterations.
 Initial convergence to 1.0D-05 achieved.  Increase integral accuracy.
 SCF Done:  E(RB3LYP) =  -535.639322762     A.U. after   17 cycles
            NFock= 17  Conv=0.24D-08     -V/T= 2.0030
 Calling FoFJK, ICntrl=      2127 FMM=F ISym2X=1 I1Cent= 0 IOpClX= 0 NMat=1 NMatS=1 NMatT=0.
 ***** Axes restored to original set *****
 -------------------------------------------------------------------
 Center     Atomic                   Forces (Hartrees/Bohr)
 Number     Number              X              Y              Z
 -------------------------------------------------------------------
      1        8          -0.013709758   -0.014377721    0.039548612
      2       17           0.012981109    0.012529036   -0.036808468
      3        1           0.000728649    0.001848685   -0.002740144
 -------------------------------------------------------------------
 Cartesian Forces:  Max     0.039548612 RMS     0.020139997

 GradGradGradGradGradGradGradGradGradGradGradGradGradGradGradGradGradGrad
 Berny optimization.
 FormGI is forming the generalized inverse of G from B-inverse, IUseBI=4.
 Internal  Forces:  Max     0.040979591 RMS     0.023880001
 Search for a saddle point.
 Step number   8 out of a maximum of  100
 All quantities printed in internal units (Hartrees-Bohrs-Radians)
 Swapping is turned off.
 Update second derivatives using D2CorX and points    6    7    8
 The second derivative matrix:
                          R1        R2        A1
           R1          -0.02070
           R2          -0.00164   0.58858
           A1           0.01796  -0.00414   0.09895
 ITU=  0  0  0  0
     Eigenvalues ---   -0.02334   0.10154   0.58862
 Eigenvectors required to have negative eigenvalues:
                          R1        A1        R2
   1                   -0.98939   0.14525  -0.00167
 RFO step:  Lambda0=3.126433139D-02 Lambda=-1.04132036D-05.
 Linear search not attempted -- option 19 set.
 Maximum step size (   0.300) exceeded in Quadratic search.
    -- Step size scaled by   0.396
 Iteration  1 RMS(Cart)=  0.08247811 RMS(Int)=  0.05568703
 Iteration  2 RMS(Cart)=  0.04502341 RMS(Int)=  0.00002892
 Iteration  3 RMS(Cart)=  0.00004261 RMS(Int)=  0.00000000
 Iteration  4 RMS(Cart)=  0.00000000 RMS(Int)=  0.00000000
 ClnCor:  largest displacement from symmetrization is 2.91D-15 for atom     1.
 Variable       Old X    -DE/DX   Delta X   Delta X   Delta X     New X
                                 (Linear)    (Quad)   (Total)
    R1        5.51427  -0.04098   0.00000   0.29640   0.29640   5.81066
    R2        1.85949  -0.00183   0.00000  -0.00071  -0.00071   1.85878
    A1        1.30022   0.00530   0.00000  -0.04636  -0.04636   1.25386
         Item               Value     Threshold  Converged?
 Maximum Force            0.040980     0.000450     NO 
 RMS     Force            0.023880     0.000300     NO 
 Maximum Displacement     0.152647     0.001800     NO 
 RMS     Displacement     0.124663     0.001200     NO 
 Predicted change in Energy= 1.134119D-02
 GradGradGradGradGradGradGradGradGradGradGradGradGradGradGradGradGradGrad

                          Input orientation:                          
 ---------------------------------------------------------------------
 Center     Atomic      Atomic             Coordinates (Angstroms)
 Number     Number       Type             X           Y           Z
 ---------------------------------------------------------------------
      1          8           0       -1.204241    1.605201   -2.103778
      2         17           0       -2.206711    0.748001    0.673827
      3          1           0       -1.006844    0.648516   -1.988418
 ---------------------------------------------------------------------
                    Distance matrix (angstroms):
                    1          2          3
     1  O    0.000000
     2  Cl   3.074871   0.000000
     3  H    0.983626   2.921837   0.000000
 Stoichiometry    ClHO
 Framework group  CS[SG(ClHO)]
 Deg. of freedom     3
 Full point group                 CS      NOp   2
 Largest Abelian subgroup         CS      NOp   2
 Largest concise Abelian subgroup C1      NOp   1
                         Standard orientation:                         
 ---------------------------------------------------------------------
 Center     Atomic      Atomic             Coordinates (Angstroms)
 Number     Number       Type             X           Y           Z
 ---------------------------------------------------------------------
      1          8           0        0.035948    2.022283    0.000000
      2         17           0        0.035948   -1.052588   -0.000000
      3          1           0       -0.898689    1.715730    0.000000
 ---------------------------------------------------------------------
 Rotational constants (GHZ):         603.6749687           4.7229060           4.6862428
 Standard basis: SVP (5D, 7F)
 There are    29 symmetry adapted cartesian basis functions of A'  symmetry.
 There are    10 symmetry adapted cartesian basis functions of A"  symmetry.
 There are    27 symmetry adapted basis functions of A'  symmetry.
 There are    10 symmetry adapted basis functions of A"  symmetry.
    37 basis functions,    69 primitive gaussians,    39 cartesian basis functions
    13 alpha electrons       13 beta electrons
       nuclear repulsion energy        30.7880212183 Hartrees.
 NAtoms=    3 NActive=    3 NUniq=    3 SFac= 1.00D+00 NAtFMM=   60 NAOKFM=F Big=F
 Integral buffers will be    131072 words long.
 Raffenetti 2 integral format.
 Two-electron integral symmetry is turned on.
 Nuclear repulsion after empirical dispersion term =       30.7866730048 Hartrees.
 One-electron integrals computed using PRISM.
 NBasis=    37 RedAO= T EigKep=  5.54D-02  NBF=    27    10
 NBsUse=    37 1.00D-06 EigRej= -1.00D+00 NBFU=    27    10
 Initial guess from the checkpoint file:  "/tmp/Gau-10682.chk"
 B after Tr=    -0.000000    0.000000    0.000000
         Rot=    1.000000    0.000000   -0.000000    0.000760 Ang=   0.09 deg.
 Initial guess orbital symmetries:
       Occupied  (A') (A') (A') (A') (A') (A") (A') (A') (A') (A')
                 (A") (A') (A")
       Virtual   (A') (A') (A') (A') (A') (A") (A') (A") (A') (A')
                 (A") (A') (A') (A") (A') (A') (A') (A") (A') (A")
                 (A') (A') (A") (A')
 ExpMin= 1.22D-01 ExpMax= 1.04D+04 ExpMxC= 1.57D+03 IAcc=2 IRadAn=         4 AccDes= 0.00D+00
 Harris functional with IExCor=  402 and IRadAn=       4 diagonalized for initial guess.
 HarFok:  IExCor=  402 AccDes= 0.00D+00 IRadAn=         4 IDoV= 1 UseB2=F ITyADJ=14
 ICtDFT=  3500011 ScaDFX=  1.000000  1.000000  1.000000  1.000000
 FoFCou: FMM=F IPFlag=           0 FMFlag=      100000 FMFlg1=           0
         NFxFlg=           0 DoJE=T BraDBF=F KetDBF=T FulRan=T
         wScrn=  0.000000 ICntrl=       500 IOpCl=  0 I1Cent=   200000004 NGrid=           0
         NMat0=    1 NMatS0=      1 NMatT0=    0 NMatD0=    1 NMtDS0=    0 NMtDT0=    0
 Petite list used in FoFCou.
 Keep R1 ints in memory in symmetry-blocked form, NReq=7153137.
 Requested convergence on RMS density matrix=1.00D-08 within 128 cycles.
 Requested convergence on MAX density matrix=1.00D-06.
 Requested convergence on             energy=1.00D-06.
 No special actions if energy rises.
 Integral accuracy reduced to 1.0D-05 until final iterations.
 Initial convergence to 1.0D-05 achieved.  Increase integral accuracy.
 SCF Done:  E(RB3LYP) =  -535.627921290     A.U. after   18 cycles
            NFock= 18  Conv=0.32D-08     -V/T= 2.0029
 Calling FoFJK, ICntrl=      2127 FMM=F ISym2X=1 I1Cent= 0 IOpClX= 0 NMat=1 NMatS=1 NMatT=0.
 ***** Axes restored to original set *****
 -------------------------------------------------------------------
 Center     Atomic                   Forces (Hartrees/Bohr)
 Number     Number              X              Y              Z
 -------------------------------------------------------------------
      1        8          -0.011793990   -0.011556350    0.033544200
      2       17           0.010971852    0.010401334   -0.031000260
      3        1           0.000822138    0.001155016   -0.002543940
 -------------------------------------------------------------------
 Cartesian Forces:  Max     0.033544200 RMS     0.016983416

 GradGradGradGradGradGradGradGradGradGradGradGradGradGradGradGradGradGrad
 Berny optimization.
 FormGI is forming the generalized inverse of G from B-inverse, IUseBI=4.
 Internal  Forces:  Max     0.034479041 RMS     0.020118457
 Search for a saddle point.
 Step number   9 out of a maximum of  100
 All quantities printed in internal units (Hartrees-Bohrs-Radians)
 Swapping is turned off.
 Update second derivatives using D2CorX and points    7    8    9
 The second derivative matrix:
                          R1        R2        A1
           R1          -0.01928
           R2          -0.00121   0.58868
           A1           0.01696  -0.00438   0.09954
 ITU=  0  0  0  0
     Eigenvalues ---   -0.02166   0.10187   0.58872
 Eigenvectors required to have negative eigenvalues:
                          R1        A1        R2
   1                   -0.99036   0.13852  -0.00097
 RFO step:  Lambda0=2.564127032D-02 Lambda=-2.58003388D-06.
 Linear search not attempted -- option 19 set.
 Maximum step size (   0.300) exceeded in Quadratic search.
    -- Step size scaled by   0.407
 Iteration  1 RMS(Cart)=  0.08299167 RMS(Int)=  0.05610758
 Iteration  2 RMS(Cart)=  0.04543464 RMS(Int)=  0.00002478
 Iteration  3 RMS(Cart)=  0.00003681 RMS(Int)=  0.00000000
 Iteration  4 RMS(Cart)=  0.00000000 RMS(Int)=  0.00000000
 ClnCor:  largest displacement from symmetrization is 1.60D-15 for atom     1.
 Variable       Old X    -DE/DX   Delta X   Delta X   Delta X     New X
                                 (Linear)    (Quad)   (Total)
    R1        5.81066  -0.03448   0.00000   0.29714   0.29714   6.10780
    R2        1.85878  -0.00126   0.00000  -0.00056  -0.00056   1.85823
    A1        1.25386   0.00489   0.00000  -0.04135  -0.04135   1.21251
         Item               Value     Threshold  Converged?
 Maximum Force            0.034479     0.000450     NO 
 RMS     Force            0.020118     0.000300     NO 
 Maximum Displacement     0.156393     0.001800     NO 
 RMS     Displacement     0.126163     0.001200     NO 
 Predicted change in Energy= 9.471997D-03
 GradGradGradGradGradGradGradGradGradGradGradGradGradGradGradGradGradGrad

                          Input orientation:                          
 ---------------------------------------------------------------------
 Center     Atomic      Atomic             Coordinates (Angstroms)
 Number     Number       Type             X           Y           Z
 ---------------------------------------------------------------------
      1          8           0       -1.178915    1.613470   -2.166071
      2         17           0       -2.238264    0.728950    0.756587
      3          1           0       -1.000616    0.659298   -2.008885
 ---------------------------------------------------------------------
                    Distance matrix (angstroms):
                    1          2          3
     1  O    0.000000
     2  Cl   3.232109   0.000000
     3  H    0.983332   3.030588   0.000000
 Stoichiometry    ClHO
 Framework group  CS[SG(ClHO)]
 Deg. of freedom     3
 Full point group                 CS      NOp   2
 Largest Abelian subgroup         CS      NOp   2
 Largest concise Abelian subgroup C1      NOp   1
                         Standard orientation:                         
 ---------------------------------------------------------------------
 Center     Atomic      Atomic             Coordinates (Angstroms)
 Number     Number       Type             X           Y           Z
 ---------------------------------------------------------------------
      1          8           0        0.035419    2.126564    0.000000
      2         17           0        0.035419   -1.105544   -0.000000
      3          1           0       -0.885472    1.781742    0.000000
 ---------------------------------------------------------------------
 Rotational constants (GHZ):         621.3673348           4.2777507           4.2485022
 Standard basis: SVP (5D, 7F)
 There are    29 symmetry adapted cartesian basis functions of A'  symmetry.
 There are    10 symmetry adapted cartesian basis functions of A"  symmetry.
 There are    27 symmetry adapted basis functions of A'  symmetry.
 There are    10 symmetry adapted basis functions of A"  symmetry.
    37 basis functions,    69 primitive gaussians,    39 cartesian basis functions
    13 alpha electrons       13 beta electrons
       nuclear repulsion energy        29.5401902510 Hartrees.
 NAtoms=    3 NActive=    3 NUniq=    3 SFac= 1.00D+00 NAtFMM=   60 NAOKFM=F Big=F
 Integral buffers will be    131072 words long.
 Raffenetti 2 integral format.
 Two-electron integral symmetry is turned on.
 Nuclear repulsion after empirical dispersion term =       29.5389502321 Hartrees.
 One-electron integrals computed using PRISM.
 NBasis=    37 RedAO= T EigKep=  5.52D-02  NBF=    27    10
[...]
 GradGradGradGradGradGradGradGradGradGradGradGradGradGradGradGradGradGrad

                          Input orientation:                          
 ---------------------------------------------------------------------
 Center     Atomic      Atomic             Coordinates (Angstroms)
 Number     Number       Type             X           Y           Z
 ---------------------------------------------------------------------
      1          8           0       -0.658447    1.656924   -3.371843
      2         17           0       -2.940624    0.318433    2.590812
      3          1           0       -0.818725    1.026361   -2.637338
 ---------------------------------------------------------------------
                    Distance matrix (angstroms):
                    1          2          3
     1  O    0.000000
     2  Cl   6.523278   0.000000
     3  H    0.981221   5.686579   0.000000
 Stoichiometry    ClHO
 Framework group  CS[SG(ClHO)]
 Deg. of freedom     3
 Full point group                 CS      NOp   2
 Largest Abelian subgroup         CS      NOp   2
 Largest concise Abelian subgroup C1      NOp   1
                         Standard orientation:                         
 ---------------------------------------------------------------------
 Center     Atomic      Atomic             Coordinates (Angstroms)
 Number     Number       Type             X           Y           Z
 ---------------------------------------------------------------------
      1          8           0        0.018390    4.298175    0.000000
      2         17           0        0.018390   -2.225102   -0.000000
      3          1           0       -0.459758    3.441339    0.000000
 ---------------------------------------------------------------------
 Rotational constants (GHZ):        2298.7399151           1.0529420           1.0524599
 Standard basis: SVP (5D, 7F)
 There are    29 symmetry adapted cartesian basis functions of A'  symmetry.
 There are    10 symmetry adapted cartesian basis functions of A"  symmetry.
 There are    27 symmetry adapted basis functions of A'  symmetry.
 There are    10 symmetry adapted basis functions of A"  symmetry.
    37 basis functions,    69 primitive gaussians,    39 cartesian basis functions
    13 alpha electrons       13 beta electrons
       nuclear repulsion energy        16.9289161467 Hartrees.
 NAtoms=    3 NActive=    3 NUniq=    3 SFac= 1.00D+00 NAtFMM=   60 NAOKFM=F Big=F
 Integral buffers will be    131072 words long.
 Raffenetti 2 integral format.
 Two-electron integral symmetry is turned on.
 Nuclear repulsion after empirical dispersion term =       16.9286425989 Hartrees.
 One-electron integrals computed using PRISM.
 NBasis=    37 RedAO= T EigKep=  5.59D-02  NBF=    27    10
 NBsUse=    37 1.00D-06 EigRej= -1.00D+00 NBFU=    27    10
 Initial guess from the checkpoint file:  "/tmp/Gau-10682.chk"
 B after Tr=     0.000000    0.000000   -0.000000
         Rot=    1.000000   -0.000000    0.000000   -0.000268 Ang=  -0.03 deg.
 Initial guess orbital symmetries:
       Occupied  (A') (A') (A') (A') (A') (A") (A') (A') (A') (A")
                 (A') (A") (A')
       Virtual   (A') (A') (A') (A') (A') (A') (A") (A") (A') (A')
                 (A') (A') (A") (A') (A") (A') (A') (A") (A') (A")
                 (A') (A') (A") (A')
 ExpMin= 1.22D-01 ExpMax= 1.04D+04 ExpMxC= 1.57D+03 IAcc=2 IRadAn=         4 AccDes= 0.00D+00
 Harris functional with IExCor=  402 and IRadAn=       4 diagonalized for initial guess.
 HarFok:  IExCor=  402 AccDes= 0.00D+00 IRadAn=         4 IDoV= 1 UseB2=F ITyADJ=14
 ICtDFT=  3500011 ScaDFX=  1.000000  1.000000  1.000000  1.000000
 FoFCou: FMM=F IPFlag=           0 FMFlag=      100000 FMFlg1=           0
         NFxFlg=           0 DoJE=T BraDBF=F KetDBF=T FulRan=T
         wScrn=  0.000000 ICntrl=       500 IOpCl=  0 I1Cent=   200000004 NGrid=           0
         NMat0=    1 NMatS0=      1 NMatT0=    0 NMatD0=    1 NMtDS0=    0 NMtDT0=    0
 Petite list used in FoFCou.
 Keep R1 ints in memory in symmetry-blocked form, NReq=7153137.
 Requested convergence on RMS density matrix=1.00D-08 within 128 cycles.
 Requested convergence on MAX density matrix=1.00D-06.
 Requested convergence on             energy=1.00D-06.
 No special actions if energy rises.
 Integral accuracy reduced to 1.0D-05 until final iterations.
 Rare condition: small coef for last iteration:  0.000D+00
 Problem detected with inexpensive integrals.
 Switching to full accuracy and repeating last cycle.
 EnCoef did   100 forward-backward iterations
 Rare condition: small coef for last iteration:  0.000D+00
 EnCoef did   100 forward-backward iterations
 EnCoef did   100 forward-backward iterations
 SCF Done:  E(RB3LYP) =  -535.578611440     A.U. after   30 cycles
            NFock= 30  Conv=0.85D-08     -V/T= 2.0025
 Calling FoFJK, ICntrl=      2127 FMM=F ISym2X=1 I1Cent= 0 IOpClX= 0 NMat=1 NMatS=1 NMatT=0.
 ***** Axes restored to original set *****
 -------------------------------------------------------------------
 Center     Atomic                   Forces (Hartrees/Bohr)
 Number     Number              X              Y              Z
 -------------------------------------------------------------------
      1        8          -0.000180394    0.000014672    0.000400423
      2       17           0.000266727    0.000144636   -0.000689935
      3        1          -0.000086332   -0.000159309    0.000289512
 -------------------------------------------------------------------
 Cartesian Forces:  Max     0.000689935 RMS     0.000312307

 GradGradGradGradGradGradGradGradGradGradGradGradGradGradGradGradGradGrad
 Berny optimization.
 FormGI is forming the generalized inverse of G from B-inverse, IUseBI=4.
 Internal  Forces:  Max     0.000753601 RMS     0.000482452
 Search for a saddle point.
 Step number  37 out of a maximum of  100
 All quantities printed in internal units (Hartrees-Bohrs-Radians)
 Swapping is turned off.
 Update second derivatives using D2CorX and points   34   35   36   37
 The second derivative matrix:
                          R1        R2        A1
           R1           0.00619
           R2          -0.00416   0.47079
           A1           0.00471  -0.00293   0.00373
 ITU=  0  0  0  0
     Eigenvalues ---    0.00009   0.00977   0.47085
 Eigenvectors required to have negative eigenvalues:
                          A1        R1        R2
   1                   -0.79114   0.61164   0.00048
 RFO step:  Lambda0=3.970234305D-04 Lambda=-4.70475623D-05.
 Linear search not attempted -- option 19 set.
 Iteration  1 RMS(Cart)=  0.08196043 RMS(Int)=  0.00546293
 Iteration  2 RMS(Cart)=  0.00430570 RMS(Int)=  0.00000337
 Iteration  3 RMS(Cart)=  0.00000475 RMS(Int)=  0.00000000
 Iteration  4 RMS(Cart)=  0.00000000 RMS(Int)=  0.00000000
 ClnCor:  largest displacement from symmetrization is 4.78D-15 for atom     1.
 Variable       Old X    -DE/DX   Delta X   Delta X   Delta X     New X
                                 (Linear)    (Quad)   (Total)
    R1       12.32721  -0.00075   0.00000  -0.01239  -0.01239  12.31481
    R2        1.85424   0.00033   0.00000  -0.00000  -0.00000   1.85423
    A1        0.50899  -0.00014   0.00000  -0.09686  -0.09686   0.41214
         Item               Value     Threshold  Converged?
 Maximum Force            0.000754     0.000450     NO 
 RMS     Force            0.000482     0.000300     NO 
 Maximum Displacement     0.076046     0.001800     NO 
 RMS     Displacement     0.081932     0.001200     NO 
 Predicted change in Energy= 7.630759D-07
 GradGradGradGradGradGradGradGradGradGradGradGradGradGradGradGradGradGrad

                          Input orientation:                          
 ---------------------------------------------------------------------
 Center     Atomic      Atomic             Coordinates (Angstroms)
 Number     Number       Type             X           Y           Z
 ---------------------------------------------------------------------
      1          8           0       -0.642313    1.621139   -3.387368
      2         17           0       -2.931362    0.313976    2.572432
      3          1           0       -0.844121    1.066603   -2.603433
 ---------------------------------------------------------------------
                    Distance matrix (angstroms):
                    1          2          3
     1  O    0.000000
     2  Cl   6.516719   0.000000
     3  H    0.981219   5.631394   0.000000
 Stoichiometry    ClHO
 Framework group  CS[SG(ClHO)]
 Deg. of freedom     3
 Full point group                 CS      NOp   2
 Largest Abelian subgroup         CS      NOp   2
 Largest concise Abelian subgroup C1      NOp   1
                         Standard orientation:                         
 ---------------------------------------------------------------------
 Center     Atomic      Atomic             Coordinates (Angstroms)
 Number     Number       Type             X           Y           Z
 ---------------------------------------------------------------------
      1          8           0        0.015117    4.295511    0.000000
      2         17           0        0.015117   -2.221208   -0.000000
      3          1           0       -0.377928    3.396453    0.000000
 ---------------------------------------------------------------------
 Rotational constants (GHZ):        3399.7913991           1.0557415           1.0554138
 Standard basis: SVP (5D, 7F)
 There are    29 symmetry adapted cartesian basis functions of A'  symmetry.
 There are    10 symmetry adapted cartesian basis functions of A"  symmetry.
 There are    27 symmetry adapted basis functions of A'  symmetry.
 There are    10 symmetry adapted basis functions of A"  symmetry.
    37 basis functions,    69 primitive gaussians,    39 cartesian basis functions
    13 alpha electrons       13 beta electrons
       nuclear repulsion energy        16.9555333140 Hartrees.
 NAtoms=    3 NActive=    3 NUniq=    3 SFac= 1.00D+00 NAtFMM=   60 NAOKFM=F Big=F
 Integral buffers will be    131072 words long.
 Raffenetti 2 integral format.
 Two-electron integral symmetry is turned on.
 Nuclear repulsion after empirical dispersion term =       16.9552587388 Hartrees.
 One-electron integrals computed using PRISM.
 NBasis=    37 RedAO= T EigKep=  5.59D-02  NBF=    27    10
 NBsUse=    37 1.00D-06 EigRej= -1.00D+00 NBFU=    27    10
 Initial guess from the checkpoint file:  "/tmp/Gau-10682.chk"
 B after Tr=     0.000000   -0.000000   -0.000000
         Rot=    1.000000   -0.000000    0.000000    0.000557 Ang=   0.06 deg.
 Initial guess orbital symmetries:
       Occupied  (A') (A') (A') (A') (A') (A") (A') (A') (A') (A")
                 (A') (A") (A')
       Virtual   (A') (A') (A') (A') (A') (A') (A") (A") (A') (A')
                 (A') (A') (A") (A') (A") (A') (A') (A") (A') (A")
                 (A') (A') (A") (A')
 ExpMin= 1.22D-01 ExpMax= 1.04D+04 ExpMxC= 1.57D+03 IAcc=2 IRadAn=         4 AccDes= 0.00D+00
 Harris functional with IExCor=  402 and IRadAn=       4 diagonalized for initial guess.
 HarFok:  IExCor=  402 AccDes= 0.00D+00 IRadAn=         4 IDoV= 1 UseB2=F ITyADJ=14
 ICtDFT=  3500011 ScaDFX=  1.000000  1.000000  1.000000  1.000000
 FoFCou: FMM=F IPFlag=           0 FMFlag=      100000 FMFlg1=           0
         NFxFlg=           0 DoJE=T BraDBF=F KetDBF=T FulRan=T
         wScrn=  0.000000 ICntrl=       500 IOpCl=  0 I1Cent=   200000004 NGrid=           0
         NMat0=    1 NMatS0=      1 NMatT0=    0 NMatD0=    1 NMtDS0=    0 NMtDT0=    0
 Petite list used in FoFCou.
 Keep R1 ints in memory in symmetry-blocked form, NReq=7153137.
 Requested convergence on RMS density matrix=1.00D-08 within 128 cycles.
 Requested convergence on MAX density matrix=1.00D-06.
 Requested convergence on             energy=1.00D-06.
 No special actions if energy rises.
 Integral accuracy reduced to 1.0D-05 until final iterations.
 Initial convergence to 1.0D-05 achieved.  Increase integral accuracy.
 Density matrix is not changing but DIIS error= 2.73D-06 CofLast= 6.09D-03.
 SCF Done:  E(RB3LYP) =  -535.578633456     A.U. after   40 cycles
            NFock= 40  Conv=0.36D-08     -V/T= 2.0025
 Calling FoFJK, ICntrl=      2127 FMM=F ISym2X=1 I1Cent= 0 IOpClX= 0 NMat=1 NMatS=1 NMatT=0.
 ***** Axes restored to original set *****
 -------------------------------------------------------------------
 Center     Atomic                   Forces (Hartrees/Bohr)
 Number     Number              X              Y              Z
 -------------------------------------------------------------------
      1        8          -0.000169281    0.000007386    0.000379512
      2       17           0.000269291    0.000143103   -0.000694848
      3        1          -0.000100010   -0.000150488    0.000315336
 -------------------------------------------------------------------
 Cartesian Forces:  Max     0.000694848 RMS     0.000312807

 GradGradGradGradGradGradGradGradGradGradGradGradGradGradGradGradGradGrad
 Berny optimization.
 FormGI is forming the generalized inverse of G from B-inverse, IUseBI=4.
 Internal  Forces:  Max     0.000758753 RMS     0.000489262
 Search for a saddle point.
 Step number  38 out of a maximum of  100
 All quantities printed in internal units (Hartrees-Bohrs-Radians)
 Swapping is turned off.
 Update second derivatives using D2CorX and points   35   36   37   38
 The second derivative matrix:
                          R1        R2        A1
           R1           0.00012
           R2           0.00084   0.46886
           A1          -0.00007   0.00012   0.00020
 ITU=  0  0  0  0
     Eigenvalues ---    0.00008   0.00024   0.46886
 Eigenvectors required to have negative eigenvalues:
                          R1        A1        R2
   1                   -0.86307  -0.50508   0.00168
 RFO step:  Lambda0=7.591372437D-04 Lambda=-1.83368272D-04.
 Linear search not attempted -- option 19 set.
 Maximum step size (   0.300) exceeded in Quadratic search.
    -- Step size scaled by   0.337
 Iteration  1 RMS(Cart)=  0.16991961 RMS(Int)=  0.06244760
 Iteration  2 RMS(Cart)=  0.09013102 RMS(Int)=  0.00615982
 Iteration  3 RMS(Cart)=  0.00476128 RMS(Int)=  0.00000747
 Iteration  4 RMS(Cart)=  0.00001050 RMS(Int)=  0.00000000
 Iteration  5 RMS(Cart)=  0.00000000 RMS(Int)=  0.00000000
 ClnCor:  largest displacement from symmetrization is 2.99D-15 for atom     3.
 Variable       Old X    -DE/DX   Delta X   Delta X   Delta X     New X
                                 (Linear)    (Quad)   (Total)
    R1       12.31481  -0.00076   0.00000   0.06294   0.06294  12.37775
    R2        1.85423   0.00036   0.00000   0.00007   0.00007   1.85430
    A1        0.41214  -0.00012   0.00000   0.29332   0.29332   0.70546
         Item               Value     Threshold  Converged?
 Maximum Force            0.000759     0.000450     NO 
 RMS     Force            0.000489     0.000300     NO 
 Maximum Displacement     0.229452     0.001800     NO 
 RMS     Displacement     0.254605     0.001200     NO 
 Predicted change in Energy= 9.084804D-05
 GradGradGradGradGradGradGradGradGradGradGradGradGradGradGradGradGradGrad

                          Input orientation:                          
 ---------------------------------------------------------------------
 Center     Atomic      Atomic             Coordinates (Angstroms)
 Number     Number       Type             X           Y           Z
 ---------------------------------------------------------------------
      1          8           0       -0.689991    1.720047   -3.337458
      2         17           0       -2.965696    0.324759    2.643943
      3          1           0       -0.762108    0.956912   -2.724854
 ---------------------------------------------------------------------
                    Distance matrix (angstroms):
                    1          2          3
     1  O    0.000000
     2  Cl   6.550025   0.000000
     3  H    0.981254   5.837757   0.000000
 Stoichiometry    ClHO
 Framework group  CS[SG(ClHO)]
 Deg. of freedom     3
 Full point group                 CS      NOp   2
 Largest Abelian subgroup         CS      NOp   2
 Largest concise Abelian subgroup C1      NOp   1
                         Standard orientation:                         
 ---------------------------------------------------------------------
 Center     Atomic      Atomic             Coordinates (Angstroms)
 Number     Number       Type             X           Y           Z
 ---------------------------------------------------------------------
      1          8           0        0.024470    4.311441   -0.000000
      2         17           0        0.024470   -2.238584    0.000000
      3          1           0       -0.611759    3.564399   -0.000000
 ---------------------------------------------------------------------
 Rotational constants (GHZ):        1300.5703396           1.0425678           1.0417327
 Standard basis: SVP (5D, 7F)
 There are    29 symmetry adapted cartesian basis functions of A'  symmetry.
 There are    10 symmetry adapted cartesian basis functions of A"  symmetry.
 There are    27 symmetry adapted basis functions of A'  symmetry.
 There are    10 symmetry adapted basis functions of A"  symmetry.
    37 basis functions,    69 primitive gaussians,    39 cartesian basis functions
    13 alpha electrons       13 beta electrons
       nuclear repulsion energy        16.8427512094 Hartrees.
 NAtoms=    3 NActive=    3 NUniq=    3 SFac= 1.00D+00 NAtFMM=   60 NAOKFM=F Big=F
 Integral buffers will be    131072 words long.
 Raffenetti 2 integral format.
 Two-electron integral symmetry is turned on.
 Nuclear repulsion after empirical dispersion term =       16.8424802662 Hartrees.
 One-electron integrals computed using PRISM.
 NBasis=    37 RedAO= T EigKep=  5.59D-02  NBF=    27    10
 NBsUse=    37 1.00D-06 EigRej= -1.00D+00 NBFU=    27    10
 Initial guess from the checkpoint file:  "/tmp/Gau-10682.chk"
 B after Tr=    -0.000000    0.000000   -0.000000
         Rot=    0.999999   -0.000000    0.000000   -0.001551 Ang=  -0.18 deg.
 Initial guess orbital symmetries:
       Occupied  (A') (A') (A') (A') (A') (A") (A') (A') (A') (A")
                 (A') (A") (A')
       Virtual   (A') (A') (A') (A') (A') (A') (A") (A") (A') (A')
                 (A') (A') (A") (A') (A") (A') (A') (A") (A') (A")
                 (A') (A') (A") (A')
 ExpMin= 1.22D-01 ExpMax= 1.04D+04 ExpMxC= 1.57D+03 IAcc=2 IRadAn=         4 AccDes= 0.00D+00
 Harris functional with IExCor=  402 and IRadAn=       4 diagonalized for initial guess.
 HarFok:  IExCor=  402 AccDes= 0.00D+00 IRadAn=         4 IDoV= 1 UseB2=F ITyADJ=14
 ICtDFT=  3500011 ScaDFX=  1.000000  1.000000  1.000000  1.000000
 FoFCou: FMM=F IPFlag=           0 FMFlag=      100000 FMFlg1=           0
         NFxFlg=           0 DoJE=T BraDBF=F KetDBF=T FulRan=T
         wScrn=  0.000000 ICntrl=       500 IOpCl=  0 I1Cent=   200000004 NGrid=           0
         NMat0=    1 NMatS0=      1 NMatT0=    0 NMatD0=    1 NMtDS0=    0 NMtDT0=    0
 Petite list used in FoFCou.
 Keep R1 ints in memory in symmetry-blocked form, NReq=7153137.
 Requested convergence on RMS density matrix=1.00D-08 within 128 cycles.
 Requested convergence on MAX density matrix=1.00D-06.
 Requested convergence on             energy=1.00D-06.
 No special actions if energy rises.
 Integral accuracy reduced to 1.0D-05 until final iterations.
 Problem detected with inexpensive integrals.
 Switching to full accuracy and repeating last cycle.
 >>>>>>>>>> Convergence criterion not met.
 SCF Done:  E(RB3LYP) =  -531.108575700     A.U. after  129 cycles
            NFock=128  Conv=0.93D-02     -V/T= 1.9949
 Convergence failure -- run terminated.
 Error termination via Lnk1e in /share/apps/g16.a03/g16/l502.exe at Thu Mar  6 16:41:00 2025.
 Job cpu time:       0 days  0 hours  7 minutes 45.2 seconds.
 Elapsed time:       0 days  0 hours  1 minutes  0.2 seconds.
 File lengths (MBytes):  RWF=      6 Int=      0 D2E=      0 Chk=      1 Scr=      1
