70
 energy: -143.141865174352 gnorm: 0.106280621230 xtb: 6.6.1 (8d0f1dd)
O     0.69738503    -2.60693902     0.71532942
H     0.30831068    -1.73063155     0.72199165
H     0.42004781    -3.03859613    -0.09466743
O    -2.31229411     0.81035318    -4.44549627
H    -2.19229591    -0.07327975    -4.79782010
H    -1.45359132     0.99916547    -4.06298155
O    -0.03996104    -0.09063588     2.98625079
H     0.12056477     0.23413956     3.87399569
H     0.26527058    -0.99693421     2.91700224
O    -0.76504997     0.97276128     5.86636398
H     0.13070021     1.25178268     6.06414577
H    -1.02304741     0.22935322     6.41419629
O     1.18422963    -1.36382583    -2.51579996
H     0.41591069    -1.93736031    -2.50666814
H     1.12542379    -0.70564115    -1.82105332
O    -0.62447221    -3.31176113    -1.76989413
H    -0.60296656    -4.16197935    -2.21261804
H    -1.36693247    -2.80860789    -2.10890598
O    -1.28245158    -0.20200641    -1.22674381
H    -2.11405042     0.21414206    -1.46041298
H    -0.59931882     0.43137276    -1.45367782
O    -2.13503876    -2.14687082    -4.80302980
H    -2.53483742    -1.99367302    -5.66095149
H    -2.74471536    -2.49133033    -4.14806521
O     0.39511835     1.09833330    -3.81876481
H     0.56404419     0.26801532    -3.37001688
H     0.95018026     1.23492224    -4.58856190
O    -3.28976269    -2.29411535    -2.22743573
H    -3.02983299    -1.38263971    -2.08256668
H    -4.23256707    -2.29311388    -2.05291588
O    -4.00856081     0.46938714    -2.50163478
Cl    -3.98453011     1.85630573    -1.51318064
H    -3.66103845     0.74254521    -3.35907241
O     1.69970356     1.96552688     4.17810746
Cl     2.73846609     2.87539300     3.18097121
H     0.86028286     2.40578133     3.99884224
O     0.76589699    -2.68572276     3.38403133
Cl     1.20462118    -4.04655904     4.30967140
H     1.24737767    -2.83161144     2.56094023
O    -0.83977672     2.75366337     3.79734455
Cl    -1.56593619     4.28862035     3.93061238
H    -1.19727971     2.27215052     4.55294039
C     4.98957200    -1.08851703    -0.28095371
C     4.28408937    -1.50574197     0.84107128
C     3.12726699    -0.86252876     1.23822069
C     2.60774307     0.15948541     0.43667670
C     3.31484053     0.60324655    -0.68045565
C     4.51836264    -0.00544471    -1.01725073
H     4.63679072    -2.31139096     1.47144129
H     2.67796220    -1.21387497     2.16054196
C    -1.65142304     2.67801335     0.72430794
C    -1.52598864     3.53002874    -0.37578911
C    -2.84116034     2.78754301     1.44983234
C    -2.45300463     4.49266658    -0.75478692
H    -0.62995751     3.42923014    -0.96683388
C    -3.71709633     3.80593077     1.11118076
C    -3.54091332     4.71178559     0.07557987
H    -2.33750972     5.12575030    -1.62495998
H    -4.56674524     3.93673735     1.76827851
Cl     6.52081547    -1.77066075    -0.72274758
Cl    -4.69195441     5.97052774    -0.28951275
N     1.44207768     0.79415492     0.89269621
H     1.20173729     0.59510896     1.85101345
C     0.51459341     1.60822477     0.26192097
O     0.68993112     1.96259369    -0.87953148
N    -0.57437750     1.84361419     1.07861408
H    -0.62150003     1.46107711     2.00989971
H    -2.94074442     2.15431428     2.32534846
H     2.91123347     1.30299170    -1.39419441
Cl     5.50614330     0.75387703    -2.22268387
