 Entering Gaussian System, Link 0=g16
 Input=ts.gjf
 Output=ts.log
 Initial command:
 /share/apps/g16.a03/g16/l1.exe "/tmp/Gau-6876.inp" -scrdir="/tmp/"
 Entering Link 1 = /share/apps/g16.a03/g16/l1.exe PID=      6878.
  
 Copyright (c) 1988,1990,1992,1993,1995,1998,2003,2009,2016,
            Gaussian, Inc.  All Rights Reserved.
  
 This is part of the Gaussian(R) 16 program.  It is based on
 the Gaussian(R) 09 system (copyright 2009, Gaussian, Inc.),
 the Gaussian(R) 03 system (copyright 2003, Gaussian, Inc.),
 the Gaussian(R) 98 system (copyright 1998, Gaussian, Inc.),
 the Gaussian(R) 94 system (copyright 1995, Gaussian, Inc.),
 the Gaussian 92(TM) system (copyright 1992, Gaussian, Inc.),
 the Gaussian 90(TM) system (copyright 1990, Gaussian, Inc.),
 the Gaussian 88(TM) system (copyright 1988, Gaussian, Inc.),
 the Gaussian 86(TM) system (copyright 1986, Carnegie Mellon
 University), and the Gaussian 82(TM) system (copyright 1983,
 Carnegie Mellon University). Gaussian is a federally registered
 trademark of Gaussian, Inc.
  
 This software contains proprietary and confidential information,
 including trade secrets, belonging to Gaussian, Inc.
  
 This software is provided under written license and may be
 used, copied, transmitted, or stored only in accord with that
 written license.
  
 The following legend is applicable only to US Government
 contracts under FAR:
  
                    RESTRICTED RIGHTS LEGEND
  
 Use, reproduction and disclosure by the US Government is
 subject to restrictions as set forth in subparagraphs (a)
 and (c) of the Commercial Computer Software - Restricted
 Rights clause in FAR 52.227-19.
  
 Gaussian, Inc.
 340 Quinnipiac St., Bldg. 40, Wallingford CT 06492
  
  
 ---------------------------------------------------------------
 Warning -- This program may not be used in any manner that
 competes with the business of Gaussian, Inc. or will provide
 assistance to any competitor of Gaussian, Inc.  The licensee
 of this program is prohibited from giving any competitor of
 Gaussian, Inc. access to this program.  By using this program,
 the user acknowledges that Gaussian, Inc. is engaged in the
 business of creating and licensing software in the field of
 computational chemistry and represents and warrants to the
 licensee that it is not a competitor of Gaussian, Inc. and that
 it will not use this program in any manner prohibited above.
 ---------------------------------------------------------------
  

 Cite this work as:
 Gaussian 16, Revision A.03,
 M. J. Frisch, G. W. Trucks, H. B. Schlegel, G. E. Scuseria, 
 M. A. Robb, J. R. Cheeseman, G. Scalmani, V. Barone, 
 G. A. Petersson, H. Nakatsuji, X. Li, M. Caricato, A. V. Marenich, 
 J. Bloino, B. G. Janesko, R. Gomperts, B. Mennucci, H. P. Hratchian, 
 J. V. Ortiz, A. F. Izmaylov, J. L. Sonnenberg, D. Williams-Young, 
 F. Ding, F. Lipparini, F. Egidi, J. Goings, B. Peng, A. Petrone, 
 T. Henderson, D. Ranasinghe, V. G. Zakrzewski, J. Gao, N. Rega, 
 G. Zheng, W. Liang, M. Hada, M. Ehara, K. Toyota, R. Fukuda, 
 J. Hasegawa, M. Ishida, T. Nakajima, Y. Honda, O. Kitao, H. Nakai, 
 T. Vreven, K. Throssell, J. A. Montgomery, Jr., J. E. Peralta, 
 F. Ogliaro, M. J. Bearpark, J. J. Heyd, E. N. Brothers, K. N. Kudin, 
 V. N. Staroverov, T. A. Keith, R. Kobayashi, J. Normand, 
 K. Raghavachari, A. P. Rendell, J. C. Burant, S. S. Iyengar, 
 J. Tomasi, M. Cossi, J. M. Millam, M. Klene, C. Adamo, R. Cammi, 
 J. W. Ochterski, R. L. Martin, K. Morokuma, O. Farkas, 
 J. B. Foresman, and D. J. Fox, Gaussian, Inc., Wallingford CT, 2016.
 
 ******************************************
 Gaussian 16:  EM64L-G16RevA.03 25-Dec-2016
                 6-Mar-2025 
 ******************************************
 %nproc=8
 Will use up to    8 processors via shared memory.
 %mem=4000MB
 --------------------------------------------------------------------
 #opt=(noeigen,calcfc,ts,recalc=5,maxcyc=200) freq B3LYP/SVP em=GD3BJ
 --------------------------------------------------------------------
 1/5=1,6=200,10=4,11=1,18=20,26=3,38=1,71=5/1,3;
 2/9=110,12=2,17=6,18=5,40=1/2;
 3/5=18,7=101,11=2,25=1,30=1,71=2,74=-5,124=41,140=1/1,2,3;
 4//1;
 5/5=2,38=5/2;
 8/6=4,10=90,11=11/1;
 11/6=1,8=1,9=11,15=111,16=1/1,2,10;
 10/6=1,13=1/2;
 6/7=2,8=2,9=2,10=2,28=1/1;
 7/10=1,18=20,25=1/1,2,3,16;
 1/5=1,6=200,10=4,11=1,18=20,26=3,71=5/3(2);
 2/9=110/2;
 99//99;
 2/9=110/2;
 3/5=18,7=101,11=2,25=1,30=1,71=1,74=-5,124=41/1,2,3;
 4/5=5,16=3,69=1/1;
 5/5=2,38=5/2;
 7//1,2,3,16;
 1/5=1,6=200,11=1,18=20,26=3,71=5/3(-5);
 2/9=110/2;
 6/7=2,8=2,9=2,10=2,19=2,28=1/1;
 99/9=1/99;
 ----------
 ts-254.gjf
 ----------
 Symbolic Z-matrix:
 Charge =  0 Multiplicity = 1
 O                    -1.57384   1.18578   0.12112 
 Cl                   -3.39396   2.3259   -0.62459 
 H                    -1.14414   1.81154  -0.48033 
 
 Add virtual bond connecting atoms Cl2        and O1         Dist= 4.30D+00.
 Add virtual bond connecting atoms Cl2        and H3         Dist= 4.37D+00.

 GradGradGradGradGradGradGradGradGradGradGradGradGradGradGradGradGradGrad
 Berny optimization.
 Initialization pass.
                           ----------------------------
                           !    Initial Parameters    !
                           ! (Angstroms and Degrees)  !
 --------------------------                            --------------------------
 ! Name  Definition              Value          Derivative Info.                !
 --------------------------------------------------------------------------------
 ! R1    R(1,2)                  2.2735         calculate D2E/DX2 analytically  !
 ! R2    R(1,3)                  0.9685         calculate D2E/DX2 analytically  !
 ! R3    R(2,3)                  2.3124         calculate D2E/DX2 analytically  !
 --------------------------------------------------------------------------------
 Trust Radius=3.00D-01 FncErr=1.00D-07 GrdErr=1.00D-06 EigMax=2.50D+02 EigMin=1.00D-04
 Number of steps in this run=    100 maximum allowed number of steps=    100.
 Search for a saddle point of order  1.
 GradGradGradGradGradGradGradGradGradGradGradGradGradGradGradGradGradGrad

                          Input orientation:                          
 ---------------------------------------------------------------------
 Center     Atomic      Atomic             Coordinates (Angstroms)
 Number     Number       Type             X           Y           Z
 ---------------------------------------------------------------------
      1          8           0       -1.573836    1.185784    0.121124
      2         17           0       -3.393956    2.325899   -0.624587
      3          1           0       -1.144144    1.811539   -0.480332
 ---------------------------------------------------------------------
                    Distance matrix (angstroms):
                    1          2          3
     1  O    0.000000
     2  Cl   2.273496   0.000000
     3  H    0.968481   2.312364   0.000000
 Stoichiometry    ClHO
 Framework group  CS[SG(ClHO)]
 Deg. of freedom     3
 Full point group                 CS      NOp   2
 Largest Abelian subgroup         CS      NOp   2
 Largest concise Abelian subgroup C1      NOp   1
                         Standard orientation:                         
 ---------------------------------------------------------------------
 Center     Atomic      Atomic             Coordinates (Angstroms)
 Number     Number       Type             X           Y           Z
 ---------------------------------------------------------------------
      1          8           0        0.036691    1.492942   -0.000000
      2         17           0        0.036691   -0.780553    0.000000
      3          1           0       -0.917269    1.325863   -0.000000
 ---------------------------------------------------------------------
 Rotational constants (GHZ):         581.2112542           8.6133001           8.4875188
 Standard basis: SVP (5D, 7F)
 There are    29 symmetry adapted cartesian basis functions of A'  symmetry.
 There are    10 symmetry adapted cartesian basis functions of A"  symmetry.
 There are    27 symmetry adapted basis functions of A'  symmetry.
 There are    10 symmetry adapted basis functions of A"  symmetry.
    37 basis functions,    69 primitive gaussians,    39 cartesian basis functions
    13 alpha electrons       13 beta electrons
       nuclear repulsion energy        39.9168538578 Hartrees.
 NAtoms=    3 NActive=    3 NUniq=    3 SFac= 1.00D+00 NAtFMM=   60 NAOKFM=F Big=F
 Integral buffers will be    131072 words long.
 Raffenetti 2 integral format.
 Two-electron integral symmetry is turned on.
 Nuclear repulsion after empirical dispersion term =       39.9151730036 Hartrees.
 One-electron integrals computed using PRISM.
 NBasis=    37 RedAO= T EigKep=  5.15D-02  NBF=    27    10
 NBsUse=    37 1.00D-06 EigRej= -1.00D+00 NBFU=    27    10
 ExpMin= 1.22D-01 ExpMax= 1.04D+04 ExpMxC= 1.57D+03 IAcc=3 IRadAn=         5 AccDes= 0.00D+00
 Harris functional with IExCor=  402 and IRadAn=       5 diagonalized for initial guess.
 HarFok:  IExCor=  402 AccDes= 0.00D+00 IRadAn=         5 IDoV= 1 UseB2=F ITyADJ=14
 ICtDFT=  3500011 ScaDFX=  1.000000  1.000000  1.000000  1.000000
 FoFCou: FMM=F IPFlag=           0 FMFlag=      100000 FMFlg1=           0
         NFxFlg=           0 DoJE=T BraDBF=F KetDBF=T FulRan=T
         wScrn=  0.000000 ICntrl=       500 IOpCl=  0 I1Cent=   200000004 NGrid=           0
         NMat0=    1 NMatS0=      1 NMatT0=    0 NMatD0=    1 NMtDS0=    0 NMtDT0=    0
 Petite list used in FoFCou.
 Initial guess orbital symmetries:
       Occupied  (A') (A') (A') (A') (A') (A") (A') (A') (A') (A')
                 (A") (A') (A")
       Virtual   (A') (A') (A') (A') (A') (A") (A') (A') (A") (A')
                 (A") (A') (A') (A") (A') (A') (A") (A') (A') (A")
                 (A') (A") (A') (A')
 The electronic state of the initial guess is 1-A'.
 Keep R1 ints in memory in symmetry-blocked form, NReq=7153137.
 Requested convergence on RMS density matrix=1.00D-08 within 128 cycles.
 Requested convergence on MAX density matrix=1.00D-06.
 Requested convergence on             energy=1.00D-06.
 No special actions if energy rises.
 Integral accuracy reduced to 1.0D-05 until final iterations.
 Initial convergence to 1.0D-05 achieved.  Increase integral accuracy.
 SCF Done:  E(RB3LYP) =  -535.705634468     A.U. after   14 cycles
            NFock= 14  Conv=0.46D-08     -V/T= 2.0032
 DoSCS=F DFT=T ScalE2(SS,OS)=  1.000000  1.000000
 Range of M.O.s used for correlation:     1    37
 NBasis=    37 NAE=    13 NBE=    13 NFC=     0 NFV=     0
 NROrb=     37 NOA=    13 NOB=    13 NVA=    24 NVB=    24
 Symmetrizing basis deriv contribution to polar:
 IMax=3 JMax=2 DiffMx= 0.00D+00
 G2DrvN: will do     4 centers at a time, making    1 passes.
 Calling FoFCou, ICntrl=  3107 FMM=F I1Cent=   0 AccDes= 0.00D+00.
 End of G2Drv F.D. properties file   721 does not exist.
 End of G2Drv F.D. properties file   722 does not exist.
 End of G2Drv F.D. properties file   788 does not exist.
          IDoAtm=111
          Differentiating once with respect to nuclear coordinates.
 Keep R1 ints in memory in symmetry-blocked form, NReq=7127942.
          There are    12 degrees of freedom in the 1st order CPHF.  IDoFFX=6 NUNeed=     0.
      6 vectors produced by pass  0 Test12= 2.60D-15 8.33D-09 XBig12= 8.01D-02 1.73D-01.
 AX will form     6 AO Fock derivatives at one time.
      6 vectors produced by pass  1 Test12= 2.60D-15 8.33D-09 XBig12= 1.77D-01 2.37D-01.
      6 vectors produced by pass  2 Test12= 2.60D-15 8.33D-09 XBig12= 4.86D-03 2.08D-02.
      6 vectors produced by pass  3 Test12= 2.60D-15 8.33D-09 XBig12= 1.49D-04 4.25D-03.
      6 vectors produced by pass  4 Test12= 2.60D-15 8.33D-09 XBig12= 1.79D-06 5.88D-04.
      6 vectors produced by pass  5 Test12= 2.60D-15 8.33D-09 XBig12= 5.22D-09 2.27D-05.
      3 vectors produced by pass  6 Test12= 2.60D-15 8.33D-09 XBig12= 5.11D-12 9.33D-07.
      1 vectors produced by pass  7 Test12= 2.60D-15 8.33D-09 XBig12= 2.78D-15 1.56D-08.
 InvSVY:  IOpt=1 It=  1 EMax= 1.11D-16
 Solved reduced A of dimension    40 with     6 vectors.
 End of Minotr F.D. properties file   721 does not exist.
 End of Minotr F.D. properties file   722 does not exist.
 End of Minotr F.D. properties file   788 does not exist.

 **********************************************************************

            Population analysis using the SCF density.

 **********************************************************************

 Orbital symmetries:
       Occupied  (A') (A') (A') (A') (A') (A") (A') (A') (A') (A')
                 (A") (A') (A")
       Virtual   (A') (A') (A') (A') (A') (A") (A') (A') (A") (A')
                 (A") (A') (A') (A") (A') (A') (A") (A') (A') (A")
                 (A') (A') (A") (A')
 The electronic state is 1-A'.
 Alpha  occ. eigenvalues -- -101.55084 -19.22793  -9.49889  -7.27220  -7.25657
 Alpha  occ. eigenvalues --   -7.25630  -0.99407  -0.80693  -0.48058  -0.39992
 Alpha  occ. eigenvalues --   -0.35911  -0.33367  -0.31978
 Alpha virt. eigenvalues --   -0.21089   0.05685   0.46373   0.57222   0.66299
 Alpha virt. eigenvalues --    0.71734   0.72225   0.76182   0.76244   0.82208
 Alpha virt. eigenvalues --    0.82412   0.87312   0.93115   0.95326   0.99481
 Alpha virt. eigenvalues --    1.33936   1.39495   1.43789   2.16007   2.57738
 Alpha virt. eigenvalues --    2.62656   2.91079   2.92937   3.64335
          Condensed to atoms (all electrons):
               1          2          3
     1  O    7.768454   0.134866   0.283666
     2  Cl   0.134866  16.883554   0.000990
     3  H    0.283666   0.000990   0.508947
 Mulliken charges:
               1
     1  O   -0.186986
     2  Cl  -0.019411
     3  H    0.206397
 Sum of Mulliken charges =  -0.00000
 Mulliken charges with hydrogens summed into heavy atoms:
               1
     1  O    0.019411
     2  Cl  -0.019411
 APT charges:
               1
     1  O   -0.276694
     2  Cl  -0.036081
     3  H    0.312775
 Sum of APT charges =  -0.00000
 APT charges with hydrogens summed into heavy atoms:
               1
     1  O    0.036081
     2  Cl  -0.036081
 Electronic spatial extent (au):  <R**2>=            148.6877
 Charge=             -0.0000 electrons
 Dipole moment (field-independent basis, Debye):
    X=             -1.6532    Y=             -0.1288    Z=             -0.0000  Tot=              1.6582
 Quadrupole moment (field-independent basis, Debye-Ang):
   XX=            -16.7478   YY=            -16.3665   ZZ=            -18.8340
   XY=             -2.3699   XZ=             -0.0000   YZ=             -0.0000
 Traceless Quadrupole moment (field-independent basis, Debye-Ang):
   XX=              0.5683   YY=              0.9496   ZZ=             -1.5179
   XY=             -2.3699   XZ=             -0.0000   YZ=             -0.0000
 Octapole moment (field-independent basis, Debye-Ang**2):
  XXX=             -2.1277  YYY=              0.2767  ZZZ=              0.0000  XYY=             -3.6263
  XXY=              3.3778  XXZ=              0.0000  XZZ=             -0.2503  YZZ=              0.5405
  YYZ=             -0.0000  XYZ=              0.0000
 Hexadecapole moment (field-independent basis, Debye-Ang**3):
 XXXX=            -17.1631 YYYY=           -122.2167 ZZZZ=            -16.9025 XXXY=             -0.1811
 XXXZ=             -0.0000 YYYX=             -2.8945 YYYZ=             -0.0000 ZZZX=             -0.0000
 ZZZY=             -0.0000 XXYY=            -22.7143 XXZZ=             -5.9661 YYZZ=            -26.3028
 XXYZ=             -0.0000 YYXZ=             -0.0000 ZZXY=              0.5362
 N-N= 3.991517300358D+01 E-N=-1.352459508578D+03  KE= 5.340184144964D+02
 Symmetry A'   KE= 4.832612468682D+02
 Symmetry A"   KE= 5.075716762821D+01
  Exact polarizability:   0.000   0.000   0.000   0.000   0.000   0.000
 Approx polarizability:  14.287  -0.508 109.615   0.000   0.000   9.551
 Calling FoFJK, ICntrl=    100147 FMM=F ISym2X=1 I1Cent= 0 IOpClX= 0 NMat=1 NMatS=1 NMatT=0.
 ***** Axes restored to original set *****
 -------------------------------------------------------------------
 Center     Atomic                   Forces (Hartrees/Bohr)
 Number     Number              X              Y              Z
 -------------------------------------------------------------------
      1        8          -0.061113831    0.030626278   -0.018387770
      2       17           0.047324068   -0.033664954    0.022882637
      3        1           0.013789763    0.003038675   -0.004494867
 -------------------------------------------------------------------
 Cartesian Forces:  Max     0.061113831 RMS     0.031845261
 FormGI is forming the generalized inverse of G from B-inverse, IUseBI=4.

 GradGradGradGradGradGradGradGradGradGradGradGradGradGradGradGradGradGrad
 Berny optimization.
 Internal  Forces:  Max     0.071744926 RMS     0.042126864
 Search for a saddle point.
 Step number   1 out of a maximum of  100
 All quantities printed in internal units (Hartrees-Bohrs-Radians)
 Swapping is turned off.
 Second derivative matrix not updated -- analytic derivatives used.
 The second derivative matrix:
                          R1        R2        R3
           R1           0.00001
           R2          -0.00737   0.53222
           R3          -0.01260  -0.00123   0.03208
 ITU=  0
     Eigenvalues ---   -0.00445   0.03643   0.53233
 Eigenvectors required to have negative eigenvalues:
                          R1        R3        R2
   1                   -0.94508  -0.32656  -0.01373
 RFO step:  Lambda0=6.210725084D-02 Lambda=-1.97965743D-02.
 Linear search not attempted -- option 19 set.
 Maximum step size (   0.300) exceeded in Quadratic search.
    -- Step size scaled by   0.265
 Iteration  1 RMS(Cart)=  0.09386587 RMS(Int)=  0.01821043
 Iteration  2 RMS(Cart)=  0.01456649 RMS(Int)=  0.00012836
 Iteration  3 RMS(Cart)=  0.00009161 RMS(Int)=  0.00000000
 Iteration  4 RMS(Cart)=  0.00000000 RMS(Int)=  0.00000000
 ClnCor:  largest displacement from symmetrization is 2.81D-15 for atom     3.
 Variable       Old X    -DE/DX   Delta X   Delta X   Delta X     New X
                                 (Linear)    (Quad)   (Total)
    R1        4.29628  -0.07174   0.00000   0.19064   0.19064   4.48692
    R2        1.83016   0.00828   0.00000   0.00756   0.00756   1.83772
    R3        4.36974   0.01040   0.00000   0.23152   0.23152   4.60125
         Item               Value     Threshold  Converged?
 Maximum Force            0.071745     0.000450     NO 
 RMS     Force            0.042127     0.000300     NO 
 Maximum Displacement     0.133332     0.001800     NO 
 RMS     Displacement     0.102692     0.001200     NO 
 Predicted change in Energy= 1.151361D-02
 GradGradGradGradGradGradGradGradGradGradGradGradGradGradGradGradGradGrad

                          Input orientation:                          
 ---------------------------------------------------------------------
 Center     Atomic      Atomic             Coordinates (Angstroms)
 Number     Number       Type             X           Y           Z
 ---------------------------------------------------------------------
      1          8           0       -1.548025    1.175723    0.126393
      2         17           0       -3.464512    2.351228   -0.637102
      3          1           0       -1.099400    1.796271   -0.473086
 ---------------------------------------------------------------------
                    Distance matrix (angstroms):
                    1          2          3
     1  O    0.000000
     2  Cl   2.374375   0.000000
     3  H    0.972481   2.434879   0.000000
 Stoichiometry    ClHO
 Framework group  CS[SG(ClHO)]
 Deg. of freedom     3
 Full point group                 CS      NOp   2
 Largest Abelian subgroup         CS      NOp   2
 Largest concise Abelian subgroup C1      NOp   1
                         Standard orientation:                         
 ---------------------------------------------------------------------
 Center     Atomic      Atomic             Coordinates (Angstroms)
 Number     Number       Type             X           Y           Z
 ---------------------------------------------------------------------
      1          8           0        0.037025    1.557779    0.000000
      2         17           0        0.037025   -0.816596   -0.000000
      3          1           0       -0.925632    1.419902   -0.000000
 ---------------------------------------------------------------------
 Rotational constants (GHZ):         571.7006843           7.8838966           7.7766546
 Standard basis: SVP (5D, 7F)
 There are    29 symmetry adapted cartesian basis functions of A'  symmetry.
 There are    10 symmetry adapted cartesian basis functions of A"  symmetry.
 There are    27 symmetry adapted basis functions of A'  symmetry.
 There are    10 symmetry adapted basis functions of A"  symmetry.
    37 basis functions,    69 primitive gaussians,    39 cartesian basis functions
    13 alpha electrons       13 beta electrons
       nuclear repulsion energy        38.3581878348 Hartrees.
 NAtoms=    3 NActive=    3 NUniq=    3 SFac= 1.00D+00 NAtFMM=   60 NAOKFM=F Big=F
 Integral buffers will be    131072 words long.
 Raffenetti 2 integral format.
 Two-electron integral symmetry is turned on.
 Nuclear repulsion after empirical dispersion term =       38.3565216311 Hartrees.
 One-electron integrals computed using PRISM.
 NBasis=    37 RedAO= T EigKep=  5.30D-02  NBF=    27    10
 NBsUse=    37 1.00D-06 EigRej= -1.00D+00 NBFU=    27    10
 Initial guess from the checkpoint file:  "/tmp/Gau-6878.chk"
 B after Tr=    -0.000000   -0.000000    0.000000
         Rot=    0.999999   -0.000000    0.000000    0.001214 Ang=   0.14 deg.
 Initial guess orbital symmetries:
       Occupied  (A') (A') (A') (A') (A') (A") (A') (A') (A') (A')
                 (A") (A') (A")
       Virtual   (A') (A') (A') (A') (A') (A") (A') (A') (A") (A')
                 (A") (A') (A') (A") (A') (A') (A") (A') (A') (A")
                 (A') (A') (A") (A')
 ExpMin= 1.22D-01 ExpMax= 1.04D+04 ExpMxC= 1.57D+03 IAcc=2 IRadAn=         4 AccDes= 0.00D+00
 Harris functional with IExCor=  402 and IRadAn=       4 diagonalized for initial guess.
 HarFok:  IExCor=  402 AccDes= 0.00D+00 IRadAn=         4 IDoV= 1 UseB2=F ITyADJ=14
 ICtDFT=  3500011 ScaDFX=  1.000000  1.000000  1.000000  1.000000
 FoFCou: FMM=F IPFlag=           0 FMFlag=      100000 FMFlg1=           0
         NFxFlg=           0 DoJE=T BraDBF=F KetDBF=T FulRan=T
         wScrn=  0.000000 ICntrl=       500 IOpCl=  0 I1Cent=   200000004 NGrid=           0
         NMat0=    1 NMatS0=      1 NMatT0=    0 NMatD0=    1 NMtDS0=    0 NMtDT0=    0
 Petite list used in FoFCou.
 Keep R1 ints in memory in symmetry-blocked form, NReq=7153137.
 Requested convergence on RMS density matrix=1.00D-08 within 128 cycles.
 Requested convergence on MAX density matrix=1.00D-06.
 Requested convergence on             energy=1.00D-06.
 No special actions if energy rises.
 Integral accuracy reduced to 1.0D-05 until final iterations.
 Initial convergence to 1.0D-05 achieved.  Increase integral accuracy.
 SCF Done:  E(RB3LYP) =  -535.694226042     A.U. after   14 cycles
            NFock= 14  Conv=0.20D-08     -V/T= 2.0032
 Calling FoFJK, ICntrl=      2127 FMM=F ISym2X=1 I1Cent= 0 IOpClX= 0 NMat=1 NMatS=1 NMatT=0.
 ***** Axes restored to original set *****
 -------------------------------------------------------------------
 Center     Atomic                   Forces (Hartrees/Bohr)
 Number     Number              X              Y              Z
 -------------------------------------------------------------------
      1        8          -0.057535323    0.029920753   -0.018256153
      2       17           0.048989083   -0.032262286    0.021440035
      3        1           0.008546240    0.002341533   -0.003183883
 -------------------------------------------------------------------
 Cartesian Forces:  Max     0.057535323 RMS     0.030782337

 GradGradGradGradGradGradGradGradGradGradGradGradGradGradGradGradGradGrad
 Berny optimization.
 FormGI is forming the generalized inverse of G from B-inverse, IUseBI=4.
 Internal  Forces:  Max     0.067948566 RMS     0.039527750
 Search for a saddle point.
 Step number   2 out of a maximum of  100
 All quantities printed in internal units (Hartrees-Bohrs-Radians)
 Swapping is turned off.
 Update second derivatives using D2CorX and points    1    2
 The second derivative matrix:
                          R1        R2        R3
           R1          -0.00220
           R2          -0.00704   0.53218
           R3          -0.01436  -0.00097   0.03071
 ITU=  0  0
     Eigenvalues ---   -0.00767   0.03608   0.53227
 Eigenvectors required to have negative eigenvalues:
                          R1        R3        R2
   1                   -0.93644  -0.35060  -0.01285
 RFO step:  Lambda0=5.772401020D-02 Lambda=-1.65589755D-02.
 Linear search not attempted -- option 19 set.
 Maximum step size (   0.300) exceeded in Quadratic search.
    -- Step size scaled by   0.274
 Iteration  1 RMS(Cart)=  0.09307460 RMS(Int)=  0.01970280
 Iteration  2 RMS(Cart)=  0.01582016 RMS(Int)=  0.00015250
 Iteration  3 RMS(Cart)=  0.00010910 RMS(Int)=  0.00000000
 Iteration  4 RMS(Cart)=  0.00000000 RMS(Int)=  0.00000000
 ClnCor:  largest displacement from symmetrization is 2.05D-15 for atom     3.
 Variable       Old X    -DE/DX   Delta X   Delta X   Delta X     New X
                                 (Linear)    (Quad)   (Total)
    R1        4.48692  -0.06795   0.00000   0.18751   0.18751   4.67443
    R2        1.83772   0.00583   0.00000   0.00618   0.00618   1.84390
    R3        4.60125   0.00603   0.00000   0.23410   0.23410   4.83535
         Item               Value     Threshold  Converged?
 Maximum Force            0.067949     0.000450     NO 
 RMS     Force            0.039528     0.000300     NO 
 Maximum Displacement     0.133545     0.001800     NO 
 RMS     Displacement     0.102875     0.001200     NO 
 Predicted change in Energy= 1.146630D-02
 GradGradGradGradGradGradGradGradGradGradGradGradGradGradGradGradGradGrad

                          Input orientation:                          
 ---------------------------------------------------------------------
 Center     Atomic      Atomic             Coordinates (Angstroms)
 Number     Number       Type             X           Y           Z
 ---------------------------------------------------------------------
      1          8           0       -1.523186    1.166867    0.130746
      2         17           0       -3.535181    2.376102   -0.649208
      3          1           0       -1.053569    1.780252   -0.465333
 ---------------------------------------------------------------------
                    Distance matrix (angstroms):
                    1          2          3
     1  O    0.000000
     2  Cl   2.473601   0.000000
     3  H    0.975752   2.558759   0.000000
 Stoichiometry    ClHO
 Framework group  CS[SG(ClHO)]
 Deg. of freedom     3
 Full point group                 CS      NOp   2
 Largest Abelian subgroup         CS      NOp   2
 Largest concise Abelian subgroup C1      NOp   1
                         Standard orientation:                         
 ---------------------------------------------------------------------
 Center     Atomic      Atomic             Coordinates (Angstroms)
 Number     Number       Type             X           Y           Z
 ---------------------------------------------------------------------
      1          8           0        0.037308    1.621424   -0.000000
      2         17           0        0.037308   -0.852176    0.000000
      3          1           0       -0.932689    1.515598   -0.000000
 ---------------------------------------------------------------------
 Rotational constants (GHZ):         564.0281977           7.2519040           7.1598474
 Standard basis: SVP (5D, 7F)
 There are    29 symmetry adapted cartesian basis functions of A'  symmetry.
 There are    10 symmetry adapted cartesian basis functions of A"  symmetry.
 There are    27 symmetry adapted basis functions of A'  symmetry.
 There are    10 symmetry adapted basis functions of A"  symmetry.
    37 basis functions,    69 primitive gaussians,    39 cartesian basis functions
    13 alpha electrons       13 beta electrons
       nuclear repulsion energy        36.9488649760 Hartrees.
 NAtoms=    3 NActive=    3 NUniq=    3 SFac= 1.00D+00 NAtFMM=   60 NAOKFM=F Big=F
 Integral buffers will be    131072 words long.
 Raffenetti 2 integral format.
 Two-electron integral symmetry is turned on.
 Nuclear repulsion after empirical dispersion term =       36.9472317062 Hartrees.
 One-electron integrals computed using PRISM.
 NBasis=    37 RedAO= T EigKep=  5.41D-02  NBF=    27    10
 NBsUse=    37 1.00D-06 EigRej= -1.00D+00 NBFU=    27    10
 Initial guess from the checkpoint file:  "/tmp/Gau-6878.chk"
 B after Tr=    -0.000000    0.000000   -0.000000
         Rot=    0.999999    0.000000   -0.000000    0.001164 Ang=   0.13 deg.
 Initial guess orbital symmetries:
       Occupied  (A') (A') (A') (A') (A') (A") (A') (A') (A') (A')
                 (A") (A') (A")
       Virtual   (A') (A') (A') (A') (A') (A") (A') (A') (A") (A')
                 (A") (A') (A') (A") (A') (A') (A") (A') (A') (A")
                 (A') (A') (A") (A')
 ExpMin= 1.22D-01 ExpMax= 1.04D+04 ExpMxC= 1.57D+03 IAcc=2 IRadAn=         4 AccDes= 0.00D+00
 Harris functional with IExCor=  402 and IRadAn=       4 diagonalized for initial guess.
 HarFok:  IExCor=  402 AccDes= 0.00D+00 IRadAn=         4 IDoV= 1 UseB2=F ITyADJ=14
 ICtDFT=  3500011 ScaDFX=  1.000000  1.000000  1.000000  1.000000
 FoFCou: FMM=F IPFlag=           0 FMFlag=      100000 FMFlg1=           0
         NFxFlg=           0 DoJE=T BraDBF=F KetDBF=T FulRan=T
         wScrn=  0.000000 ICntrl=       500 IOpCl=  0 I1Cent=   200000004 NGrid=           0
         NMat0=    1 NMatS0=      1 NMatT0=    0 NMatD0=    1 NMtDS0=    0 NMtDT0=    0
 Petite list used in FoFCou.
 Keep R1 ints in memory in symmetry-blocked form, NReq=7153137.
 Requested convergence on RMS density matrix=1.00D-08 within 128 cycles.
 Requested convergence on MAX density matrix=1.00D-06.
 Requested convergence on             energy=1.00D-06.
 No special actions if energy rises.
 Integral accuracy reduced to 1.0D-05 until final iterations.
 Initial convergence to 1.0D-05 achieved.  Increase integral accuracy.
 SCF Done:  E(RB3LYP) =  -535.682965723     A.U. after   14 cycles
            NFock= 14  Conv=0.30D-08     -V/T= 2.0032
 Calling FoFJK, ICntrl=      2127 FMM=F ISym2X=1 I1Cent= 0 IOpClX= 0 NMat=1 NMatS=1 NMatT=0.
 ***** Axes restored to original set *****
 -------------------------------------------------------------------
 Center     Atomic                   Forces (Hartrees/Bohr)
 Number     Number              X              Y              Z
 -------------------------------------------------------------------
      1        8          -0.053103438    0.028362100   -0.017498124
      2       17           0.048659358   -0.030173557    0.019669694
      3        1           0.004444080    0.001811457   -0.002171570
 -------------------------------------------------------------------
 Cartesian Forces:  Max     0.053103438 RMS     0.029104006

 GradGradGradGradGradGradGradGradGradGradGradGradGradGradGradGradGradGrad
 Berny optimization.
 FormGI is forming the generalized inverse of G from B-inverse, IUseBI=4.
 Internal  Forces:  Max     0.062995065 RMS     0.036471170
 Search for a saddle point.
 Step number   3 out of a maximum of  100
 All quantities printed in internal units (Hartrees-Bohrs-Radians)
 Swapping is turned off.
 Update second derivatives using D2CorX and points    1    2    3
 The second derivative matrix:
                          R1        R2        R3
           R1          -0.00492
           R2          -0.00653   0.53209
           R3          -0.01704  -0.00046   0.02806
 ITU=  0  0  0
     Eigenvalues ---   -0.01222   0.03527   0.53216
 Eigenvectors required to have negative eigenvalues:
                          R1        R3        R2
   1                   -0.92082  -0.38981  -0.01138
 RFO step:  Lambda0=5.114305185D-02 Lambda=-1.46350243D-02.
 Linear search not attempted -- option 19 set.
 Maximum step size (   0.300) exceeded in Quadratic search.
    -- Step size scaled by   0.286
 Iteration  1 RMS(Cart)=  0.09069815 RMS(Int)=  0.02465515
 Iteration  2 RMS(Cart)=  0.01989562 RMS(Int)=  0.00024283
 Iteration  3 RMS(Cart)=  0.00017453 RMS(Int)=  0.00000000
 Iteration  4 RMS(Cart)=  0.00000000 RMS(Int)=  0.00000000
 ClnCor:  largest displacement from symmetrization is 9.57D-16 for atom     1.
 Variable       Old X    -DE/DX   Delta X   Delta X   Delta X     New X
                                 (Linear)    (Quad)   (Total)
    R1        4.67443  -0.06300   0.00000   0.17633   0.17633   4.85076
    R2        1.84390   0.00387   0.00000   0.00469   0.00469   1.84859
    R3        4.83535   0.00266   0.00000   0.24266   0.24266   5.07801
         Item               Value     Threshold  Converged?
 Maximum Force            0.062995     0.000450     NO 
 RMS     Force            0.036471     0.000300     NO 
 Maximum Displacement     0.134254     0.001800     NO 
 RMS     Displacement     0.103988     0.001200     NO 
 Predicted change in Energy= 1.046430D-02
 GradGradGradGradGradGradGradGradGradGradGradGradGradGradGradGradGradGrad

                          Input orientation:                          
 ---------------------------------------------------------------------
 Center     Atomic      Atomic             Coordinates (Angstroms)
 Number     Number       Type             X           Y           Z
 ---------------------------------------------------------------------
      1          8           0       -1.502081    1.161315    0.132730
      2         17           0       -3.606225    2.399533   -0.660008
      3          1           0       -1.003630    1.762374   -0.456517
 ---------------------------------------------------------------------
                    Distance matrix (angstroms):
                    1          2          3
     1  O    0.000000
     2  Cl   2.566913   0.000000
     3  H    0.978232   2.687169   0.000000
 Stoichiometry    ClHO
 Framework group  CS[SG(ClHO)]
 Deg. of freedom     3
 Full point group                 CS      NOp   2
 Largest Abelian subgroup         CS      NOp   2
 Largest concise Abelian subgroup C1      NOp   1
                         Standard orientation:                         
 ---------------------------------------------------------------------
 Center     Atomic      Atomic             Coordinates (Angstroms)
 Number     Number       Type             X           Y           Z
 ---------------------------------------------------------------------
      1          8           0        0.037545    1.680802    0.000000
      2         17           0        0.037545   -0.886111   -0.000000
      3          1           0       -0.938635    1.617477   -0.000000
 ---------------------------------------------------------------------
 Rotational constants (GHZ):         558.0445819           6.7204921           6.6405208
 Standard basis: SVP (5D, 7F)
 There are    29 symmetry adapted cartesian basis functions of A'  symmetry.
 There are    10 symmetry adapted cartesian basis functions of A"  symmetry.
 There are    27 symmetry adapted basis functions of A'  symmetry.
 There are    10 symmetry adapted basis functions of A"  symmetry.
    37 basis functions,    69 primitive gaussians,    39 cartesian basis functions
    13 alpha electrons       13 beta electrons
       nuclear repulsion energy        35.7122199377 Hartrees.
 NAtoms=    3 NActive=    3 NUniq=    3 SFac= 1.00D+00 NAtFMM=   60 NAOKFM=F Big=F
 Integral buffers will be    131072 words long.
 Raffenetti 2 integral format.
 Two-electron integral symmetry is turned on.
 Nuclear repulsion after empirical dispersion term =       35.7106308668 Hartrees.
 One-electron integrals computed using PRISM.
 NBasis=    37 RedAO= T EigKep=  5.48D-02  NBF=    27    10
 NBsUse=    37 1.00D-06 EigRej= -1.00D+00 NBFU=    27    10
 Initial guess from the checkpoint file:  "/tmp/Gau-6878.chk"
 B after Tr=     0.000000   -0.000000    0.000000
         Rot=    0.999999    0.000000   -0.000000    0.001177 Ang=   0.13 deg.
 Initial guess orbital symmetries:
       Occupied  (A') (A') (A') (A') (A') (A") (A') (A') (A') (A')
                 (A") (A') (A")
       Virtual   (A') (A') (A') (A') (A') (A") (A') (A') (A") (A')
                 (A") (A') (A') (A") (A') (A') (A") (A') (A') (A")
                 (A') (A') (A") (A')
 ExpMin= 1.22D-01 ExpMax= 1.04D+04 ExpMxC= 1.57D+03 IAcc=2 IRadAn=         4 AccDes= 0.00D+00
 Harris functional with IExCor=  402 and IRadAn=       4 diagonalized for initial guess.
 HarFok:  IExCor=  402 AccDes= 0.00D+00 IRadAn=         4 IDoV= 1 UseB2=F ITyADJ=14
 ICtDFT=  3500011 ScaDFX=  1.000000  1.000000  1.000000  1.000000
 FoFCou: FMM=F IPFlag=           0 FMFlag=      100000 FMFlg1=           0
         NFxFlg=           0 DoJE=T BraDBF=F KetDBF=T FulRan=T
         wScrn=  0.000000 ICntrl=       500 IOpCl=  0 I1Cent=   200000004 NGrid=           0
         NMat0=    1 NMatS0=      1 NMatT0=    0 NMatD0=    1 NMtDS0=    0 NMtDT0=    0
 Petite list used in FoFCou.
 Keep R1 ints in memory in symmetry-blocked form, NReq=7153137.
 Requested convergence on RMS density matrix=1.00D-08 within 128 cycles.
 Requested convergence on MAX density matrix=1.00D-06.
 Requested convergence on             energy=1.00D-06.
 No special actions if energy rises.
 Integral accuracy reduced to 1.0D-05 until final iterations.
 Initial convergence to 1.0D-05 achieved.  Increase integral accuracy.
 SCF Done:  E(RB3LYP) =  -535.672639604     A.U. after   14 cycles
            NFock= 14  Conv=0.41D-08     -V/T= 2.0032
 Calling FoFJK, ICntrl=      2127 FMM=F ISym2X=1 I1Cent= 0 IOpClX= 0 NMat=1 NMatS=1 NMatT=0.
 ***** Axes restored to original set *****
 -------------------------------------------------------------------
 Center     Atomic                   Forces (Hartrees/Bohr)
 Number     Number              X              Y              Z
 -------------------------------------------------------------------
      1        8          -0.048393224    0.026133704   -0.016195658
      2       17           0.047269974   -0.027755356    0.017755641
      3        1           0.001123250    0.001621653   -0.001559984
 -------------------------------------------------------------------
 Cartesian Forces:  Max     0.048393224 RMS     0.027107957

 GradGradGradGradGradGradGradGradGradGradGradGradGradGradGradGradGradGrad
 Berny optimization.
 FormGI is forming the generalized inverse of G from B-inverse, IUseBI=4.
 Internal  Forces:  Max     0.057443142 RMS     0.033198035
 Search for a saddle point.
 Step number   4 out of a maximum of  100
 All quantities printed in internal units (Hartrees-Bohrs-Radians)
 Swapping is turned off.
 Update second derivatives using D2CorX and points    2    3    4
 The second derivative matrix:
                          R1        R2        R3
           R1          -0.00576
           R2          -0.00641   0.53207
           R3          -0.01857  -0.00024   0.02525
 ITU=  0  0  0  0
     Eigenvalues ---   -0.01451   0.03393   0.53215
 Eigenvectors required to have negative eigenvalues:
                          R1        R3        R2
   1                   -0.90594  -0.42327  -0.01081
 RFO step:  Lambda0=4.534062101D-02 Lambda=-1.25454642D-02.
 Linear search not attempted -- option 19 set.
 Maximum step size (   0.300) exceeded in Quadratic search.
    -- Step size scaled by   0.296
 Iteration  1 RMS(Cart)=  0.08915303 RMS(Int)=  0.02790722
 Iteration  2 RMS(Cart)=  0.02267069 RMS(Int)=  0.00031745
 Iteration  3 RMS(Cart)=  0.00022985 RMS(Int)=  0.00000001
 Iteration  4 RMS(Cart)=  0.00000000 RMS(Int)=  0.00000000
 ClnCor:  largest displacement from symmetrization is 2.56D-15 for atom     1.
 Variable       Old X    -DE/DX   Delta X   Delta X   Delta X     New X
                                 (Linear)    (Quad)   (Total)
    R1        4.85076  -0.05744   0.00000   0.16835   0.16835   5.01911
    R2        1.84859   0.00256   0.00000   0.00378   0.00378   1.85237
    R3        5.07801  -0.00019   0.00000   0.24828   0.24828   5.32630
         Item               Value     Threshold  Converged?
 Maximum Force            0.057443     0.000450     NO 
 RMS     Force            0.033198     0.000300     NO 
 Maximum Displacement     0.134584     0.001800     NO 
 RMS     Displacement     0.105046     0.001200     NO 
 Predicted change in Energy= 9.627618D-03
 GradGradGradGradGradGradGradGradGradGradGradGradGradGradGradGradGradGrad

                          Input orientation:                          
 ---------------------------------------------------------------------
 Center     Atomic      Atomic             Coordinates (Angstroms)
 Number     Number       Type             X           Y           Z
 ---------------------------------------------------------------------
      1          8           0       -1.483462    1.158397    0.132761
      2         17           0       -3.677444    2.421932   -0.669889
      3          1           0       -0.951030    1.742893   -0.446667
 ---------------------------------------------------------------------
                    Distance matrix (angstroms):
                    1          2          3
     1  O    0.000000
     2  Cl   2.655998   0.000000
     3  H    0.980232   2.818556   0.000000
 Stoichiometry    ClHO
 Framework group  CS[SG(ClHO)]
 Deg. of freedom     3
 Full point group                 CS      NOp   2
 Largest Abelian subgroup         CS      NOp   2
 Largest concise Abelian subgroup C1      NOp   1
                         Standard orientation:                         
 ---------------------------------------------------------------------
 Center     Atomic      Atomic             Coordinates (Angstroms)
 Number     Number       Type             X           Y           Z
 ---------------------------------------------------------------------
      1          8           0        0.037698    1.737128    0.000000
      2         17           0        0.037698   -0.918870   -0.000000
      3          1           0       -0.942444    1.723776   -0.000000
 ---------------------------------------------------------------------
 Rotational constants (GHZ):         554.8057483           6.2629381           6.1930279
 Standard basis: SVP (5D, 7F)
 There are    29 symmetry adapted cartesian basis functions of A'  symmetry.
 There are    10 symmetry adapted cartesian basis functions of A"  symmetry.
 There are    27 symmetry adapted basis functions of A'  symmetry.
 There are    10 symmetry adapted basis functions of A"  symmetry.
    37 basis functions,    69 primitive gaussians,    39 cartesian basis functions
    13 alpha electrons       13 beta electrons
       nuclear repulsion energy        34.6069449479 Hartrees.
 NAtoms=    3 NActive=    3 NUniq=    3 SFac= 1.00D+00 NAtFMM=   60 NAOKFM=F Big=F
 Integral buffers will be    131072 words long.
 Raffenetti 2 integral format.
 Two-electron integral symmetry is turned on.
 Nuclear repulsion after empirical dispersion term =       34.6054093329 Hartrees.
 One-electron integrals computed using PRISM.
 NBasis=    37 RedAO= T EigKep=  5.54D-02  NBF=    27    10
 NBsUse=    37 1.00D-06 EigRej= -1.00D+00 NBFU=    27    10
 Initial guess from the checkpoint file:  "/tmp/Gau-6878.chk"
 B after Tr=     0.000000    0.000000   -0.000000
         Rot=    0.999999   -0.000000    0.000000    0.001190 Ang=   0.14 deg.
 Initial guess orbital symmetries:
       Occupied  (A') (A') (A') (A') (A') (A") (A') (A') (A') (A')
                 (A") (A') (A")
       Virtual   (A') (A') (A') (A') (A') (A") (A') (A") (A') (A')
                 (A") (A') (A') (A") (A') (A') (A") (A') (A') (A")
                 (A') (A') (A") (A')
 ExpMin= 1.22D-01 ExpMax= 1.04D+04 ExpMxC= 1.57D+03 IAcc=2 IRadAn=         4 AccDes= 0.00D+00
 Harris functional with IExCor=  402 and IRadAn=       4 diagonalized for initial guess.
 HarFok:  IExCor=  402 AccDes= 0.00D+00 IRadAn=         4 IDoV= 1 UseB2=F ITyADJ=14
 ICtDFT=  3500011 ScaDFX=  1.000000  1.000000  1.000000  1.000000
 FoFCou: FMM=F IPFlag=           0 FMFlag=      100000 FMFlg1=           0
         NFxFlg=           0 DoJE=T BraDBF=F KetDBF=T FulRan=T
         wScrn=  0.000000 ICntrl=       500 IOpCl=  0 I1Cent=   200000004 NGrid=           0
         NMat0=    1 NMatS0=      1 NMatT0=    0 NMatD0=    1 NMtDS0=    0 NMtDT0=    0
 Petite list used in FoFCou.
 Keep R1 ints in memory in symmetry-blocked form, NReq=7153137.
 Requested convergence on RMS density matrix=1.00D-08 within 128 cycles.
 Requested convergence on MAX density matrix=1.00D-06.
 Requested convergence on             energy=1.00D-06.
 No special actions if energy rises.
 Integral accuracy reduced to 1.0D-05 until final iterations.
 Initial convergence to 1.0D-05 achieved.  Increase integral accuracy.
 SCF Done:  E(RB3LYP) =  -535.663111437     A.U. after   14 cycles
            NFock= 14  Conv=0.58D-08     -V/T= 2.0031
 Calling FoFJK, ICntrl=      2127 FMM=F ISym2X=1 I1Cent= 0 IOpClX= 0 NMat=1 NMatS=1 NMatT=0.
 ***** Axes restored to original set *****
 -------------------------------------------------------------------
 Center     Atomic                   Forces (Hartrees/Bohr)
 Number     Number              X              Y              Z
 -------------------------------------------------------------------
      1        8          -0.043575470    0.023576636   -0.014622107
      2       17           0.045110332   -0.025183072    0.015811328
      3        1          -0.001534862    0.001606436   -0.001189222
 -------------------------------------------------------------------
 Cartesian Forces:  Max     0.045110332 RMS     0.024930934

 GradGradGradGradGradGradGradGradGradGradGradGradGradGradGradGradGradGrad
 Berny optimization.
 FormGI is forming the generalized inverse of G from B-inverse, IUseBI=4.
 Internal  Forces:  Max     0.051653559 RMS     0.029873419
 Search for a saddle point.
 Step number   5 out of a maximum of  100
 All quantities printed in internal units (Hartrees-Bohrs-Radians)
 Swapping is turned off.
 Update second derivatives using D2CorX and points    3    4    5
 The second derivative matrix:
                          R1        R2        R3
           R1          -0.00587
           R2          -0.00639   0.53207
           R3          -0.01924  -0.00017   0.02246
 ITU=  0  0  0  0
     Eigenvalues ---   -0.01566   0.03218   0.53214
 Eigenvectors required to have negative eigenvalues:
                          R1        R3        R2
   1                   -0.89261  -0.45070  -0.01056
 RFO step:  Lambda0=4.004287334D-02 Lambda=-1.03858686D-02.
 Linear search not attempted -- option 19 set.
 Maximum step size (   0.300) exceeded in Quadratic search.
    -- Step size scaled by   0.306
 Iteration  1 RMS(Cart)=  0.08826341 RMS(Int)=  0.02982779
 Iteration  2 RMS(Cart)=  0.02443968 RMS(Int)=  0.00037169
 Iteration  3 RMS(Cart)=  0.00027199 RMS(Int)=  0.00000001
 Iteration  4 RMS(Cart)=  0.00000001 RMS(Int)=  0.00000000
 ClnCor:  largest displacement from symmetrization is 5.61D-15 for atom     3.
 Variable       Old X    -DE/DX   Delta X   Delta X   Delta X     New X
                                 (Linear)    (Quad)   (Total)
    R1        5.01911  -0.05165   0.00000   0.16335   0.16335   5.18246
    R2        1.85237   0.00167   0.00000   0.00320   0.00320   1.85557
    R3        5.32630  -0.00253   0.00000   0.25161   0.25161   5.57790
         Item               Value     Threshold  Converged?
 Maximum Force            0.051654     0.000450     NO 
 RMS     Force            0.029873     0.000300     NO 
 Maximum Displacement     0.134755     0.001800     NO 
 RMS     Displacement     0.105883     0.001200     NO 
 Predicted change in Energy= 8.908752D-03
 GradGradGradGradGradGradGradGradGradGradGradGradGradGradGradGradGradGrad

                          Input orientation:                          
 ---------------------------------------------------------------------
 Center     Atomic      Atomic             Coordinates (Angstroms)
 Number     Number       Type             X           Y           Z
 ---------------------------------------------------------------------
      1          8           0       -1.466193    1.157519    0.131201
      2         17           0       -3.748753    2.443667   -0.679181
      3          1           0       -0.896990    1.722036   -0.435816
 ---------------------------------------------------------------------
                    Distance matrix (angstroms):
                    1          2          3
     1  O    0.000000
     2  Cl   2.742440   0.000000
     3  H    0.981926   2.951700   0.000000
 Stoichiometry    ClHO
 Framework group  CS[SG(ClHO)]
 Deg. of freedom     3
 Full point group                 CS      NOp   2
 Largest Abelian subgroup         CS      NOp   2
 Largest concise Abelian subgroup C1      NOp   1
                         Standard orientation:                         
 ---------------------------------------------------------------------
 Center     Atomic      Atomic             Coordinates (Angstroms)
 Number     Number       Type             X           Y           Z
 ---------------------------------------------------------------------
      1          8           0        0.037733    1.791540   -0.000000
      2         17           0        0.037733   -0.950901    0.000000
      3          1           0       -0.943318    1.832995   -0.000000
 ---------------------------------------------------------------------
 Rotational constants (GHZ):         555.1080415           5.8602635           5.7990432
 Standard basis: SVP (5D, 7F)
 There are    29 symmetry adapted cartesian basis functions of A'  symmetry.
 There are    10 symmetry adapted cartesian basis functions of A"  symmetry.
 There are    27 symmetry adapted basis functions of A'  symmetry.
 There are    10 symmetry adapted basis functions of A"  symmetry.
    37 basis functions,    69 primitive gaussians,    39 cartesian basis functions
    13 alpha electrons       13 beta electrons
       nuclear repulsion energy        33.6014385365 Hartrees.
 NAtoms=    3 NActive=    3 NUniq=    3 SFac= 1.00D+00 NAtFMM=   60 NAOKFM=F Big=F
 Integral buffers will be    131072 words long.
 Raffenetti 2 integral format.
 Two-electron integral symmetry is turned on.
 Nuclear repulsion after empirical dispersion term =       33.5999645861 Hartrees.
 One-electron integrals computed using PRISM.
 NBasis=    37 RedAO= T EigKep=  5.58D-02  NBF=    27    10
 NBsUse=    37 1.00D-06 EigRej= -1.00D+00 NBFU=    27    10
 Initial guess from the checkpoint file:  "/tmp/Gau-6878.chk"
 B after Tr=     0.000000   -0.000000    0.000000
         Rot=    0.999999    0.000000   -0.000000    0.001203 Ang=   0.14 deg.
 Initial guess orbital symmetries:
       Occupied  (A') (A') (A') (A') (A') (A") (A') (A') (A') (A')
                 (A") (A') (A")
       Virtual   (A') (A') (A') (A') (A') (A") (A') (A") (A') (A')
                 (A") (A') (A') (A") (A') (A') (A") (A') (A') (A")
                 (A') (A') (A") (A')
 ExpMin= 1.22D-01 ExpMax= 1.04D+04 ExpMxC= 1.57D+03 IAcc=2 IRadAn=         4 AccDes= 0.00D+00
 Harris functional with IExCor=  402 and IRadAn=       4 diagonalized for initial guess.
 HarFok:  IExCor=  402 AccDes= 0.00D+00 IRadAn=         4 IDoV= 1 UseB2=F ITyADJ=14
 ICtDFT=  3500011 ScaDFX=  1.000000  1.000000  1.000000  1.000000
 FoFCou: FMM=F IPFlag=           0 FMFlag=      100000 FMFlg1=           0
         NFxFlg=           0 DoJE=T BraDBF=F KetDBF=T FulRan=T
         wScrn=  0.000000 ICntrl=       500 IOpCl=  0 I1Cent=   200000004 NGrid=           0
         NMat0=    1 NMatS0=      1 NMatT0=    0 NMatD0=    1 NMtDS0=    0 NMtDT0=    0
 Petite list used in FoFCou.
 Keep R1 ints in memory in symmetry-blocked form, NReq=7153137.
 Requested convergence on RMS density matrix=1.00D-08 within 128 cycles.
 Requested convergence on MAX density matrix=1.00D-06.
 Requested convergence on             energy=1.00D-06.
 No special actions if energy rises.
 Integral accuracy reduced to 1.0D-05 until final iterations.
 Initial convergence to 1.0D-05 achieved.  Increase integral accuracy.
 SCF Done:  E(RB3LYP) =  -535.654273030     A.U. after   15 cycles
            NFock= 15  Conv=0.88D-08     -V/T= 2.0031
 Calling FoFJK, ICntrl=      2127 FMM=F ISym2X=1 I1Cent= 0 IOpClX= 0 NMat=1 NMatS=1 NMatT=0.
 ***** Axes restored to original set *****
 -------------------------------------------------------------------
 Center     Atomic                   Forces (Hartrees/Bohr)
 Number     Number              X              Y              Z
 -------------------------------------------------------------------
      1        8          -0.038779327    0.020916152   -0.012955801
      2       17           0.042391469   -0.022578929    0.013914556
      3        1          -0.003612142    0.001662776   -0.000958755
 -------------------------------------------------------------------
 Cartesian Forces:  Max     0.042391469 RMS     0.022672464

 GradGradGradGradGradGradGradGradGradGradGradGradGradGradGradGradGradGrad
 Berny optimization.
 FormGI is forming the generalized inverse of G from B-inverse, IUseBI=4.
 Internal  Forces:  Max     0.045870402 RMS     0.026609446
 Search for a saddle point.
 Step number   6 out of a maximum of  100
 All quantities printed in internal units (Hartrees-Bohrs-Radians)
 Swapping is turned off.
 Second derivative matrix not updated -- analytic derivatives used.
 The second derivative matrix:
                          R1        R2        R3
           R1          -0.00587
           R2          -0.00639   0.53207
           R3          -0.01924  -0.00017   0.02246
 ITU=  0  0  0  0
     Eigenvalues ---   -0.01566   0.03218   0.53214
 Eigenvectors required to have negative eigenvalues:
                          R1        R3        R2
   1                   -0.89261  -0.45070  -0.01056
 RFO step:  Lambda0=3.577873873D-02 Lambda=-7.15771943D-03.
 Linear search not attempted -- option 19 set.
 Maximum step size (   0.300) exceeded in Quadratic search.
    -- Step size scaled by   0.320
 Iteration  1 RMS(Cart)=  0.09059928 RMS(Int)=  0.02444522
 Iteration  2 RMS(Cart)=  0.02018875 RMS(Int)=  0.00025567
 Iteration  3 RMS(Cart)=  0.00018893 RMS(Int)=  0.00000000
 Iteration  4 RMS(Cart)=  0.00000000 RMS(Int)=  0.00000000
 ClnCor:  largest displacement from symmetrization is 2.26D-15 for atom     1.
 Variable       Old X    -DE/DX   Delta X   Delta X   Delta X     New X
                                 (Linear)    (Quad)   (Total)
    R1        5.18246  -0.04587   0.00000   0.17686   0.17686   5.35932
    R2        1.85557   0.00104   0.00000   0.00301   0.00301   1.85859
    R3        5.57790  -0.00436   0.00000   0.24230   0.24230   5.82021
         Item               Value     Threshold  Converged?
 Maximum Force            0.045870     0.000450     NO 
 RMS     Force            0.026609     0.000300     NO 
 Maximum Displacement     0.134335     0.001800     NO 
 RMS     Displacement     0.104017     0.001200     NO 
 Predicted change in Energy= 8.908052D-03
 GradGradGradGradGradGradGradGradGradGradGradGradGradGradGradGradGradGrad

                          Input orientation:                          
 ---------------------------------------------------------------------
 Center     Atomic      Atomic             Coordinates (Angstroms)
 Number     Number       Type             X           Y           Z
 ---------------------------------------------------------------------
      1          8           0       -1.444146    1.153667    0.131582
      2         17           0       -3.819840    2.466874   -0.689781
      3          1           0       -0.847950    1.702681   -0.425597
 ---------------------------------------------------------------------
                    Distance matrix (angstroms):
                    1          2          3
     1  O    0.000000
     2  Cl   2.836032   0.000000
     3  H    0.983521   3.079921   0.000000
 Stoichiometry    ClHO
 Framework group  CS[SG(ClHO)]
 Deg. of freedom     3
 Full point group                 CS      NOp   2
 Largest Abelian subgroup         CS      NOp   2
 Largest concise Abelian subgroup C1      NOp   1
                         Standard orientation:                         
 ---------------------------------------------------------------------
 Center     Atomic      Atomic             Coordinates (Angstroms)
 Number     Number       Type             X           Y           Z
 ---------------------------------------------------------------------
      1          8           0        0.037690    1.851104   -0.000000
      2         17           0        0.037690   -0.984928    0.000000
      3          1           0       -0.942251    1.934940   -0.000000
 ---------------------------------------------------------------------
 Rotational constants (GHZ):         557.3389721           5.4702875           5.4171185
 Standard basis: SVP (5D, 7F)
 There are    29 symmetry adapted cartesian basis functions of A'  symmetry.
 There are    10 symmetry adapted cartesian basis functions of A"  symmetry.
 There are    27 symmetry adapted basis functions of A'  symmetry.
 There are    10 symmetry adapted basis functions of A"  symmetry.
    37 basis functions,    69 primitive gaussians,    39 cartesian basis functions
    13 alpha electrons       13 beta electrons
       nuclear repulsion energy        32.6015464902 Hartrees.
 NAtoms=    3 NActive=    3 NUniq=    3 SFac= 1.00D+00 NAtFMM=   60 NAOKFM=F Big=F
 Integral buffers will be    131072 words long.
 Raffenetti 2 integral format.
 Two-electron integral symmetry is turned on.
 Nuclear repulsion after empirical dispersion term =       32.6001425138 Hartrees.
 One-electron integrals computed using PRISM.
 NBasis=    37 RedAO= T EigKep=  5.61D-02  NBF=    27    10
 NBsUse=    37 1.00D-06 EigRej= -1.00D+00 NBFU=    27    10
 Initial guess from the checkpoint file:  "/tmp/Gau-6878.chk"
 B after Tr=    -0.000000    0.000000    0.000000
         Rot=    0.999999   -0.000000    0.000000    0.001087 Ang=   0.12 deg.
 Initial guess orbital symmetries:
       Occupied  (A') (A') (A') (A') (A') (A") (A') (A') (A') (A')
                 (A") (A') (A")
       Virtual   (A') (A') (A') (A') (A') (A") (A') (A") (A') (A')
                 (A") (A') (A') (A") (A') (A') (A") (A') (A') (A")
                 (A') (A') (A") (A')
 ExpMin= 1.22D-01 ExpMax= 1.04D+04 ExpMxC= 1.57D+03 IAcc=2 IRadAn=         4 AccDes= 0.00D+00
 Harris functional with IExCor=  402 and IRadAn=       4 diagonalized for initial guess.
 HarFok:  IExCor=  402 AccDes= 0.00D+00 IRadAn=         4 IDoV= 1 UseB2=F ITyADJ=14
 ICtDFT=  3500011 ScaDFX=  1.000000  1.000000  1.000000  1.000000
 FoFCou: FMM=F IPFlag=           0 FMFlag=      100000 FMFlg1=           0
         NFxFlg=           0 DoJE=T BraDBF=F KetDBF=T FulRan=T
         wScrn=  0.000000 ICntrl=       500 IOpCl=  0 I1Cent=   200000004 NGrid=           0
         NMat0=    1 NMatS0=      1 NMatT0=    0 NMatD0=    1 NMtDS0=    0 NMtDT0=    0
 Petite list used in FoFCou.
 Keep R1 ints in memory in symmetry-blocked form, NReq=7153137.
 Requested convergence on RMS density matrix=1.00D-08 within 128 cycles.
 Requested convergence on MAX density matrix=1.00D-06.
 Requested convergence on             energy=1.00D-06.
 No special actions if energy rises.
 Integral accuracy reduced to 1.0D-05 until final iterations.
 Initial convergence to 1.0D-05 achieved.  Increase integral accuracy.
 SCF Done:  E(RB3LYP) =  -535.645477415     A.U. after   14 cycles
            NFock= 14  Conv=0.46D-08     -V/T= 2.0030
 Calling FoFJK, ICntrl=      2127 FMM=F ISym2X=1 I1Cent= 0 IOpClX= 0 NMat=1 NMatS=1 NMatT=0.
 ***** Axes restored to original set *****
 -------------------------------------------------------------------
 Center     Atomic                   Forces (Hartrees/Bohr)
 Number     Number              X              Y              Z
 -------------------------------------------------------------------
      1        8          -0.033913674    0.018573942   -0.011575361
      2       17           0.038901011   -0.019993939    0.012138213
      3        1          -0.004987337    0.001419997   -0.000562851
 -------------------------------------------------------------------
 Cartesian Forces:  Max     0.038901011 RMS     0.020321600

 GradGradGradGradGradGradGradGradGradGradGradGradGradGradGradGradGradGrad
 Berny optimization.
 FormGI is forming the generalized inverse of G from B-inverse, IUseBI=4.
 Internal  Forces:  Max     0.040345369 RMS     0.023493034
 Search for a saddle point.
 Step number   7 out of a maximum of  100
 All quantities printed in internal units (Hartrees-Bohrs-Radians)
 Swapping is turned off.
 Update second derivatives using D2CorX and points    5    6    7
 The second derivative matrix:
                          R1        R2        R3
           R1          -0.00500
           R2          -0.00601   0.53178
           R3          -0.01907   0.00125   0.01774
 ITU=  0  0  0  0
     Eigenvalues ---   -0.01588   0.02854   0.53185
 Eigenvectors required to have negative eigenvalues:
                          R1        R3        R2
   1                   -0.86986  -0.49323  -0.00841
 RFO step:  Lambda0=3.058994957D-02 Lambda=-6.64766659D-03.
 Linear search not attempted -- option 19 set.
 Maximum step size (   0.300) exceeded in Quadratic search.
    -- Step size scaled by   0.326
 Iteration  1 RMS(Cart)=  0.08777426 RMS(Int)=  0.03101304
 Iteration  2 RMS(Cart)=  0.02591543 RMS(Int)=  0.00042544
 Iteration  3 RMS(Cart)=  0.00031951 RMS(Int)=  0.00000002
 Iteration  4 RMS(Cart)=  0.00000001 RMS(Int)=  0.00000000
 ClnCor:  largest displacement from symmetrization is 3.45D-15 for atom     3.
 Variable       Old X    -DE/DX   Delta X   Delta X   Delta X     New X
                                 (Linear)    (Quad)   (Total)
    R1        5.35932  -0.04035   0.00000   0.16017   0.16017   5.51949
    R2        1.85859   0.00019   0.00000   0.00147   0.00147   1.86005
    R3        5.82021  -0.00529   0.00000   0.25366   0.25366   6.07387
         Item               Value     Threshold  Converged?
 Maximum Force            0.040345     0.000450     NO 
 RMS     Force            0.023493     0.000300     NO 
 Maximum Displacement     0.134923     0.001800     NO 
 RMS     Displacement     0.106784     0.001200     NO 
 Predicted change in Energy= 7.534855D-03
 GradGradGradGradGradGradGradGradGradGradGradGradGradGradGradGradGradGrad

                          Input orientation:                          
 ---------------------------------------------------------------------
 Center     Atomic      Atomic             Coordinates (Angstroms)
 Number     Number       Type             X           Y           Z
 ---------------------------------------------------------------------
      1          8           0       -1.427146    1.155371    0.127815
      2         17           0       -3.891239    2.488124   -0.698639
      3          1           0       -0.793552    1.679727   -0.412971
 ---------------------------------------------------------------------
                    Distance matrix (angstroms):
                    1          2          3
     1  O    0.000000
     2  Cl   2.920790   0.000000
     3  H    0.984297   3.214152   0.000000
 Stoichiometry    ClHO
 Framework group  CS[SG(ClHO)]
 Deg. of freedom     3
 Full point group                 CS      NOp   2
 Largest Abelian subgroup         CS      NOp   2
 Largest concise Abelian subgroup C1      NOp   1
                         Standard orientation:                         
 ---------------------------------------------------------------------
 Center     Atomic      Atomic             Coordinates (Angstroms)
 Number     Number       Type             X           Y           Z
 ---------------------------------------------------------------------
      1          8           0        0.037460    1.904276    0.000000
      2         17           0        0.037460   -1.016514   -0.000000
      3          1           0       -0.936505    2.046519    0.000000
 ---------------------------------------------------------------------
 Rotational constants (GHZ):         565.5418335           5.1451694           5.0987819
 Standard basis: SVP (5D, 7F)
 There are    29 symmetry adapted cartesian basis functions of A'  symmetry.
 There are    10 symmetry adapted cartesian basis functions of A"  symmetry.
 There are    27 symmetry adapted basis functions of A'  symmetry.
 There are    10 symmetry adapted basis functions of A"  symmetry.
    37 basis functions,    69 primitive gaussians,    39 cartesian basis functions
    13 alpha electrons       13 beta electrons
       nuclear repulsion energy        31.7397736442 Hartrees.
 NAtoms=    3 NActive=    3 NUniq=    3 SFac= 1.00D+00 NAtFMM=   60 NAOKFM=F Big=F
 Integral buffers will be    131072 words long.
 Raffenetti 2 integral format.
 Two-electron integral symmetry is turned on.
 Nuclear repulsion after empirical dispersion term =       31.7384437158 Hartrees.
 One-electron integrals computed using PRISM.
 NBasis=    37 RedAO= T EigKep=  5.62D-02  NBF=    27    10
 NBsUse=    37 1.00D-06 EigRej= -1.00D+00 NBFU=    27    10
 Initial guess from the checkpoint file:  "/tmp/Gau-6878.chk"
 B after Tr=     0.000000   -0.000000   -0.000000
         Rot=    0.999999    0.000000   -0.000000    0.001207 Ang=   0.14 deg.
 Initial guess orbital symmetries:
       Occupied  (A') (A') (A') (A') (A') (A") (A') (A') (A') (A')
                 (A") (A') (A")
       Virtual   (A') (A') (A') (A') (A') (A") (A') (A") (A') (A')
                 (A") (A') (A') (A") (A') (A') (A") (A') (A') (A")
                 (A') (A') (A") (A')
 ExpMin= 1.22D-01 ExpMax= 1.04D+04 ExpMxC= 1.57D+03 IAcc=2 IRadAn=         4 AccDes= 0.00D+00
 Harris functional with IExCor=  402 and IRadAn=       4 diagonalized for initial guess.
 HarFok:  IExCor=  402 AccDes= 0.00D+00 IRadAn=         4 IDoV= 1 UseB2=F ITyADJ=14
 ICtDFT=  3500011 ScaDFX=  1.000000  1.000000  1.000000  1.000000
 FoFCou: FMM=F IPFlag=           0 FMFlag=      100000 FMFlg1=           0
         NFxFlg=           0 DoJE=T BraDBF=F KetDBF=T FulRan=T
         wScrn=  0.000000 ICntrl=       500 IOpCl=  0 I1Cent=   200000004 NGrid=           0
         NMat0=    1 NMatS0=      1 NMatT0=    0 NMatD0=    1 NMtDS0=    0 NMtDT0=    0
 Petite list used in FoFCou.
 Keep R1 ints in memory in symmetry-blocked form, NReq=7153137.
 Requested convergence on RMS density matrix=1.00D-08 within 128 cycles.
 Requested convergence on MAX density matrix=1.00D-06.
 Requested convergence on             energy=1.00D-06.
 No special actions if energy rises.
 Integral accuracy reduced to 1.0D-05 until final iterations.
 Initial convergence to 1.0D-05 achieved.  Increase integral accuracy.
 SCF Done:  E(RB3LYP) =  -535.637965718     A.U. after   16 cycles
            NFock= 16  Conv=0.87D-09     -V/T= 2.0030
 Calling FoFJK, ICntrl=      2127 FMM=F ISym2X=1 I1Cent= 0 IOpClX= 0 NMat=1 NMatS=1 NMatT=0.
 ***** Axes restored to original set *****
 -------------------------------------------------------------------
 Center     Atomic                   Forces (Hartrees/Bohr)
 Number     Number              X              Y              Z
 -------------------------------------------------------------------
      1        8          -0.029729704    0.015868392   -0.009787559
      2       17           0.035652531   -0.017581771    0.010479468
      3        1          -0.005922827    0.001713379   -0.000691909
 -------------------------------------------------------------------
 Cartesian Forces:  Max     0.035652531 RMS     0.018135271

 GradGradGradGradGradGradGradGradGradGradGradGradGradGradGradGradGradGrad
 Berny optimization.
 FormGI is forming the generalized inverse of G from B-inverse, IUseBI=4.
 Internal  Forces:  Max     0.035056563 RMS     0.020565193
 Search for a saddle point.
 Step number   8 out of a maximum of  100
 All quantities printed in internal units (Hartrees-Bohrs-Radians)
 Swapping is turned off.
 Update second derivatives using D2CorX and points    6    7    8
 The second derivative matrix:
                          R1        R2        R3
           R1          -0.00382
           R2          -0.00621   0.53172
           R3          -0.01840   0.00066   0.01562
 ITU=  0  0  0  0
     Eigenvalues ---   -0.01496   0.02668   0.53179
 Eigenvectors required to have negative eigenvalues:
                          R1        R3        R2
   1                   -0.85689  -0.51543  -0.00911
 RFO step:  Lambda0=2.663834834D-02 Lambda=-5.05320491D-03.
 Linear search not attempted -- option 19 set.
 Maximum step size (   0.300) exceeded in Quadratic search.
    -- Step size scaled by   0.335
 Iteration  1 RMS(Cart)=  0.08788239 RMS(Int)=  0.03068603
 Iteration  2 RMS(Cart)=  0.02600147 RMS(Int)=  0.00043292
 Iteration  3 RMS(Cart)=  0.00033165 RMS(Int)=  0.00000002
 Iteration  4 RMS(Cart)=  0.00000001 RMS(Int)=  0.00000000
 ClnCor:  largest displacement from symmetrization is 2.59D-15 for atom     1.
 Variable       Old X    -DE/DX   Delta X   Delta X   Delta X     New X
                                 (Linear)    (Quad)   (Total)
    R1        5.51949  -0.03506   0.00000   0.16106   0.16106   5.68055
    R2        1.86005   0.00024   0.00000   0.00185   0.00185   1.86190
    R3        6.07387  -0.00631   0.00000   0.25310   0.25310   6.32696
         Item               Value     Threshold  Converged?
 Maximum Force            0.035057     0.000450     NO 
 RMS     Force            0.020565     0.000300     NO 
 Maximum Displacement     0.134976     0.001800     NO 
 RMS     Displacement     0.106836     0.001200     NO 
 Predicted change in Energy= 6.941582D-03
 GradGradGradGradGradGradGradGradGradGradGradGradGradGradGradGradGradGrad

                          Input orientation:                          
 ---------------------------------------------------------------------
 Center     Atomic      Atomic             Coordinates (Angstroms)
 Number     Number       Type             X           Y           Z
 ---------------------------------------------------------------------
      1          8           0       -1.409501    1.157678    0.123437
      2         17           0       -3.962665    2.509364   -0.707485
      3          1           0       -0.739771    1.656180   -0.399747
 ---------------------------------------------------------------------
                    Distance matrix (angstroms):
                    1          2          3
     1  O    0.000000
     2  Cl   3.006017   0.000000
     3  H    0.985274   3.348085   0.000000
 Stoichiometry    ClHO
 Framework group  CS[SG(ClHO)]
 Deg. of freedom     3
 Full point group                 CS      NOp   2
 Largest Abelian subgroup         CS      NOp   2
 Largest concise Abelian subgroup C1      NOp   1
                         Standard orientation:                         
 ---------------------------------------------------------------------
 Center     Atomic      Atomic             Coordinates (Angstroms)
 Number     Number       Type             X           Y           Z
 ---------------------------------------------------------------------
      1          8           0        0.037106    1.957778   -0.000000
      2         17           0        0.037106   -1.048239    0.000000
      3          1           0       -0.927643    2.157839   -0.000000
 ---------------------------------------------------------------------
 Rotational constants (GHZ):         577.7048527           4.8465712           4.8062499
 Standard basis: SVP (5D, 7F)
 There are    29 symmetry adapted cartesian basis functions of A'  symmetry.
 There are    10 symmetry adapted cartesian basis functions of A"  symmetry.
 There are    27 symmetry adapted basis functions of A'  symmetry.
 There are    10 symmetry adapted basis functions of A"  symmetry.
    37 basis functions,    69 primitive gaussians,    39 cartesian basis functions
    13 alpha electrons       13 beta electrons
       nuclear repulsion energy        30.9249530955 Hartrees.
 NAtoms=    3 NActive=    3 NUniq=    3 SFac= 1.00D+00 NAtFMM=   60 NAOKFM=F Big=F
 Integral buffers will be    131072 words long.
 Raffenetti 2 integral format.
 Two-electron integral symmetry is turned on.
 Nuclear repulsion after empirical dispersion term =       30.9237004793 Hartrees.
 One-electron integrals computed using PRISM.
 NBasis=    37 RedAO= T EigKep=  5.63D-02  NBF=    27    10
 NBsUse=    37 1.00D-06 EigRej= -1.00D+00 NBFU=    27    10
 Initial guess from the checkpoint file:  "/tmp/Gau-6878.chk"
 B after Tr=    -0.000000    0.000000    0.000000
         Rot=    0.999999    0.000000   -0.000000    0.001195 Ang=   0.14 deg.
 Initial guess orbital symmetries:
       Occupied  (A') (A') (A') (A') (A') (A") (A') (A') (A') (A')
                 (A") (A') (A")
       Virtual   (A') (A') (A') (A') (A') (A") (A') (A") (A') (A')
                 (A') (A") (A') (A") (A') (A') (A") (A') (A') (A")
                 (A') (A') (A") (A')
 ExpMin= 1.22D-01 ExpMax= 1.04D+04 ExpMxC= 1.57D+03 IAcc=2 IRadAn=         4 AccDes= 0.00D+00
 Harris functional with IExCor=  402 and IRadAn=       4 diagonalized for initial guess.
 HarFok:  IExCor=  402 AccDes= 0.00D+00 IRadAn=         4 IDoV= 1 UseB2=F ITyADJ=14
 ICtDFT=  3500011 ScaDFX=  1.000000  1.000000  1.000000  1.000000
 FoFCou: FMM=F IPFlag=           0 FMFlag=      100000 FMFlg1=           0
         NFxFlg=           0 DoJE=T BraDBF=F KetDBF=T FulRan=T
         wScrn=  0.000000 ICntrl=       500 IOpCl=  0 I1Cent=   200000004 NGrid=           0
         NMat0=    1 NMatS0=      1 NMatT0=    0 NMatD0=    1 NMtDS0=    0 NMtDT0=    0
 Petite list used in FoFCou.
 Keep R1 ints in memory in symmetry-blocked form, NReq=7153137.
 Requested convergence on RMS density matrix=1.00D-08 within 128 cycles.
 Requested convergence on MAX density matrix=1.00D-06.
 Requested convergence on             energy=1.00D-06.
 No special actions if energy rises.
 Integral accuracy reduced to 1.0D-05 until final iterations.
 Initial convergence to 1.0D-05 achieved.  Increase integral accuracy.
 SCF Done:  E(RB3LYP) =  -535.631031523     A.U. after   15 cycles
            NFock= 15  Conv=0.82D-08     -V/T= 2.0030
 Calling FoFJK, ICntrl=      2127 FMM=F ISym2X=1 I1Cent= 0 IOpClX= 0 NMat=1 NMatS=1 NMatT=0.
 ***** Axes restored to original set *****
 -------------------------------------------------------------------
 Center     Atomic                   Forces (Hartrees/Bohr)
 Number     Number              X              Y              Z
 -------------------------------------------------------------------
      1        8          -0.025619949    0.013566912   -0.008340829
      2       17           0.032349274   -0.015344866    0.008980360
      3        1          -0.006729325    0.001777954   -0.000639530
 -------------------------------------------------------------------
 Cartesian Forces:  Max     0.032349274 RMS     0.016060488

 GradGradGradGradGradGradGradGradGradGradGradGradGradGradGradGradGradGrad
 Berny optimization.
 FormGI is forming the generalized inverse of G from B-inverse, IUseBI=4.
 Internal  Forces:  Max     0.030167116 RMS     0.017878127
 Search for a saddle point.
 Step number   9 out of a maximum of  100
 All quantities printed in internal units (Hartrees-Bohrs-Radians)
 Swapping is turned off.
 Update second derivatives using D2CorX and points    7    8    9
 The second derivative matrix:
                          R1        R2        R3
           R1          -0.00248
           R2          -0.00606   0.53172
           R3          -0.01770   0.00094   0.01395
 ITU=  0  0  0  0
     Eigenvalues ---   -0.01381   0.02521   0.53179
 Eigenvectors required to have negative eigenvalues:
                          R1        R3        R2
   1                   -0.84335  -0.53729  -0.00843
 RFO step:  Lambda0=2.309488229D-02 Lambda=-3.68155176D-03.
 Linear search not attempted -- option 19 set.
 Maximum step size (   0.300) exceeded in Quadratic search.
    -- Step size scaled by   0.346
 Iteration  1 RMS(Cart)=  0.08839037 RMS(Int)=  0.02946671
 Iteration  2 RMS(Cart)=  0.02535512 RMS(Int)=  0.00041659
 Iteration  3 RMS(Cart)=  0.00032633 RMS(Int)=  0.00000002
 Iteration  4 RMS(Cart)=  0.00000002 RMS(Int)=  0.00000000
 ClnCor:  largest displacement from symmetrization is 1.62D-15 for atom     3.
 Variable       Old X    -DE/DX   Delta X   Delta X   Delta X     New X
                                 (Linear)    (Quad)   (Total)
    R1        5.68055  -0.03017   0.00000   0.16432   0.16432   5.84487
    R2        1.86190  -0.00000   0.00000   0.00153   0.00153   1.86343
    R3        6.32696  -0.00699   0.00000   0.25099   0.25099   6.57795
         Item               Value     Threshold  Converged?
 Maximum Force            0.030167     0.000450     NO 
 RMS     Force            0.017878     0.000300     NO 
 Maximum Displacement     0.135031     0.001800     NO 
 RMS     Displacement     0.106512     0.001200     NO 
 Predicted change in Energy= 6.386451D-03
 GradGradGradGradGradGradGradGradGradGradGradGradGradGradGradGradGradGrad

                          Input orientation:                          
 ---------------------------------------------------------------------
 Center     Atomic      Atomic             Coordinates (Angstroms)
 Number     Number       Type             X           Y           Z
 ---------------------------------------------------------------------
      1          8           0       -1.390387    1.159978    0.118868
      2         17           0       -4.034120    2.530839   -0.716531
      3          1           0       -0.687430    1.632405   -0.386132
 ---------------------------------------------------------------------
                    Distance matrix (angstroms):
                    1          2          3
     1  O    0.000000
     2  Cl   3.092973   0.000000
     3  H    0.986083   3.480903   0.000000
 Stoichiometry    ClHO
 Framework group  CS[SG(ClHO)]
 Deg. of freedom     3
 Full point group                 CS      NOp   2
 Largest Abelian subgroup         CS      NOp   2
 Largest concise Abelian subgroup C1      NOp   1
                         Standard orientation:                         
 ---------------------------------------------------------------------
 Center     Atomic      Atomic             Coordinates (Angstroms)
 Number     Number       Type             X           Y           Z
 ---------------------------------------------------------------------
      1          8           0        0.036636    2.012518    0.000000
      2         17           0        0.036636   -1.080455    0.000000
      3          1           0       -0.915888    2.267587   -0.000000
 ---------------------------------------------------------------------
 Rotational constants (GHZ):         593.8477031           4.5685009           4.5336235
 Standard basis: SVP (5D, 7F)
 There are    29 symmetry adapted cartesian basis functions of A'  symmetry.
 There are    10 symmetry adapted cartesian basis functions of A"  symmetry.
 There are    27 symmetry adapted basis functions of A'  symmetry.
 There are    10 symmetry adapted basis functions of A"  symmetry.
    37 basis functions,    69 primitive gaussians,    39 cartesian basis functions
    13 alpha electrons       13 beta electrons
       nuclear repulsion energy        30.1458167414 Hartrees.
 NAtoms=    3 NActive=    3 NUniq=    3 SFac= 1.00D+00 NAtFMM=   60 NAOKFM=F Big=F
 Integral buffers will be    131072 words long.
[...]
      1        8          -0.000539356    0.000183314   -0.000086715
      2       17           0.000831323   -0.000288566    0.000138886
      3        1          -0.000291967    0.000105252   -0.000052171
 -------------------------------------------------------------------
 Cartesian Forces:  Max     0.000831323 RMS     0.000368892

 GradGradGradGradGradGradGradGradGradGradGradGradGradGradGradGradGradGrad
 Berny optimization.
 FormGI is forming the generalized inverse of G from B-inverse, IUseBI=4.
 Internal  Forces:  Max     0.000456198 RMS     0.000372887
 Search for a saddle point.
 Step number  48 out of a maximum of  100
 All quantities printed in internal units (Hartrees-Bohrs-Radians)
 Swapping is turned off.
 Update second derivatives using D2CorX and points   45   46   47   48
 The second derivative matrix:
                          R1        R2        R3
           R1           0.00207
           R2           0.00294   0.48444
           R3          -0.00285  -0.00132   0.00159
 ITU=  0  0  0  0
     Eigenvalues ---   -0.00103   0.00466   0.48446
 Eigenvectors required to have negative eigenvalues:
                          R3        R1        R2
   1                    0.73526   0.67778  -0.00211
 RFO step:  Lambda0=2.991231736D-04 Lambda=-6.79712301D-08.
 Linear search not attempted -- option 19 set.
 Maximum step size (   0.300) exceeded in Quadratic search.
    -- Step size scaled by   0.632
 Iteration  1 RMS(Cart)=  0.09436979 RMS(Int)=  0.01254318
 Iteration  2 RMS(Cart)=  0.02398980 RMS(Int)=  0.01100291
 Iteration  3 RMS(Cart)=  0.00007179 RMS(Int)=  0.01100203
 Iteration  4 RMS(Cart)=  0.00006748 RMS(Int)=  0.01100121
 Iteration  5 RMS(Cart)=  0.00006360 RMS(Int)=  0.01100045
 Iteration  6 RMS(Cart)=  0.00006010 RMS(Int)=  0.01099973
 Iteration  7 RMS(Cart)=  0.00005693 RMS(Int)=  0.01099907
 Iteration  8 RMS(Cart)=  0.00005405 RMS(Int)=  0.01099844
 Iteration  9 RMS(Cart)=  0.00005143 RMS(Int)=  0.01099785
 Iteration 10 RMS(Cart)=  0.00004903 RMS(Int)=  0.01099729
 Iteration 11 RMS(Cart)=  0.00004684 RMS(Int)=  0.01099676
 Iteration 12 RMS(Cart)=  0.00004482 RMS(Int)=  0.01099625
 Iteration 13 RMS(Cart)=  0.00004297 RMS(Int)=  0.01099578
 Iteration 14 RMS(Cart)=  0.00004127 RMS(Int)=  0.01099532
 Iteration 15 RMS(Cart)=  0.00003969 RMS(Int)=  0.01099489
 Iteration 16 RMS(Cart)=  0.00003823 RMS(Int)=  0.01099447
 Iteration 17 RMS(Cart)=  0.00003689 RMS(Int)=  0.01099407
 Iteration 18 RMS(Cart)=  0.00003564 RMS(Int)=  0.01099369
 Iteration 19 RMS(Cart)=  0.00003448 RMS(Int)=  0.01099332
 Iteration 20 RMS(Cart)=  0.00003340 RMS(Int)=  0.01099297
 Iteration 21 RMS(Cart)=  0.00003240 RMS(Int)=  0.01099263
 Iteration 22 RMS(Cart)=  0.00003146 RMS(Int)=  0.01099230
 Iteration 23 RMS(Cart)=  0.00003059 RMS(Int)=  0.01099198
 Iteration 24 RMS(Cart)=  0.00002978 RMS(Int)=  0.01099168
 Iteration 25 RMS(Cart)=  0.00002902 RMS(Int)=  0.01099138
 Iteration 26 RMS(Cart)=  0.00002832 RMS(Int)=  0.01099109
 Iteration 27 RMS(Cart)=  0.00002766 RMS(Int)=  0.01099081
 Iteration 28 RMS(Cart)=  0.00002704 RMS(Int)=  0.01099054
 Iteration 29 RMS(Cart)=  0.00002647 RMS(Int)=  0.01099027
 Iteration 30 RMS(Cart)=  0.00002593 RMS(Int)=  0.01099001
 Iteration 31 RMS(Cart)=  0.00002543 RMS(Int)=  0.01098976
 Iteration 32 RMS(Cart)=  0.00002496 RMS(Int)=  0.01098951
 Iteration 33 RMS(Cart)=  0.00002453 RMS(Int)=  0.01098927
 Iteration 34 RMS(Cart)=  0.00002412 RMS(Int)=  0.01098904
 Iteration 35 RMS(Cart)=  0.00002375 RMS(Int)=  0.01098880
 Iteration 36 RMS(Cart)=  0.00002340 RMS(Int)=  0.01098858
 Iteration 37 RMS(Cart)=  0.00002307 RMS(Int)=  0.01098836
 Iteration 38 RMS(Cart)=  0.00002277 RMS(Int)=  0.01098814
 Iteration 39 RMS(Cart)=  0.00002250 RMS(Int)=  0.01098792
 Iteration 40 RMS(Cart)=  0.00002224 RMS(Int)=  0.01098771
 Iteration 41 RMS(Cart)=  0.00002201 RMS(Int)=  0.01098750
 Iteration 42 RMS(Cart)=  0.00002180 RMS(Int)=  0.01098730
 Iteration 43 RMS(Cart)=  0.00002161 RMS(Int)=  0.01098710
 Iteration 44 RMS(Cart)=  0.00002144 RMS(Int)=  0.01098690
 Iteration 45 RMS(Cart)=  0.00002128 RMS(Int)=  0.01098670
 Iteration 46 RMS(Cart)=  0.00002115 RMS(Int)=  0.01098650
 Iteration 47 RMS(Cart)=  0.00002103 RMS(Int)=  0.01098631
 Iteration 48 RMS(Cart)=  0.00002093 RMS(Int)=  0.01098612
 Iteration 49 RMS(Cart)=  0.00002085 RMS(Int)=  0.01098593
 Iteration 50 RMS(Cart)=  0.00002078 RMS(Int)=  0.01098574
 Iteration 51 RMS(Cart)=  0.00002073 RMS(Int)=  0.01098556
 Iteration 52 RMS(Cart)=  0.00002070 RMS(Int)=  0.01098537
 Iteration 53 RMS(Cart)=  0.00002069 RMS(Int)=  0.01098518
 Iteration 54 RMS(Cart)=  0.00002069 RMS(Int)=  0.01098500
 Iteration 55 RMS(Cart)=  0.00002071 RMS(Int)=  0.01098482
 Iteration 56 RMS(Cart)=  0.00002074 RMS(Int)=  0.01098463
 Iteration 57 RMS(Cart)=  0.00002079 RMS(Int)=  0.01098445
 Iteration 58 RMS(Cart)=  0.00002086 RMS(Int)=  0.01098427
 Iteration 59 RMS(Cart)=  0.00002095 RMS(Int)=  0.01098409
 Iteration 60 RMS(Cart)=  0.00002105 RMS(Int)=  0.01098391
 Iteration 61 RMS(Cart)=  0.00002117 RMS(Int)=  0.01098372
 Iteration 62 RMS(Cart)=  0.00002131 RMS(Int)=  0.01098354
 Iteration 63 RMS(Cart)=  0.00002147 RMS(Int)=  0.01098336
 Iteration 64 RMS(Cart)=  0.00002165 RMS(Int)=  0.01098318
 Iteration 65 RMS(Cart)=  0.00002185 RMS(Int)=  0.01098299
 Iteration 66 RMS(Cart)=  0.00002207 RMS(Int)=  0.01098281
 Iteration 67 RMS(Cart)=  0.00002231 RMS(Int)=  0.01098262
 Iteration 68 RMS(Cart)=  0.00002257 RMS(Int)=  0.01098243
 Iteration 69 RMS(Cart)=  0.00002286 RMS(Int)=  0.01098225
 Iteration 70 RMS(Cart)=  0.00002318 RMS(Int)=  0.01098206
 Iteration 71 RMS(Cart)=  0.00002352 RMS(Int)=  0.01098186
 Iteration 72 RMS(Cart)=  0.00002388 RMS(Int)=  0.01098167
 Iteration 73 RMS(Cart)=  0.00002428 RMS(Int)=  0.01098148
 Iteration 74 RMS(Cart)=  0.00002471 RMS(Int)=  0.01098128
 Iteration 75 RMS(Cart)=  0.00002517 RMS(Int)=  0.01098108
 Iteration 76 RMS(Cart)=  0.00002567 RMS(Int)=  0.01098087
 Iteration 77 RMS(Cart)=  0.00002621 RMS(Int)=  0.01098067
 Iteration 78 RMS(Cart)=  0.00002678 RMS(Int)=  0.01098046
 Iteration 79 RMS(Cart)=  0.00002740 RMS(Int)=  0.01098025
 Iteration 80 RMS(Cart)=  0.00002807 RMS(Int)=  0.01098003
 Iteration 81 RMS(Cart)=  0.00002879 RMS(Int)=  0.01097981
 Iteration 82 RMS(Cart)=  0.00002956 RMS(Int)=  0.01097959
 Iteration 83 RMS(Cart)=  0.00003039 RMS(Int)=  0.01097936
 Iteration 84 RMS(Cart)=  0.00003129 RMS(Int)=  0.01097913
 Iteration 85 RMS(Cart)=  0.00003226 RMS(Int)=  0.01097889
 Iteration 86 RMS(Cart)=  0.00003331 RMS(Int)=  0.01097864
 Iteration 87 RMS(Cart)=  0.00003445 RMS(Int)=  0.01097839
 Iteration 88 RMS(Cart)=  0.00003567 RMS(Int)=  0.01097814
 Iteration 89 RMS(Cart)=  0.00003701 RMS(Int)=  0.01097787
 Iteration 90 RMS(Cart)=  0.00003846 RMS(Int)=  0.01097760
 Iteration 91 RMS(Cart)=  0.00004004 RMS(Int)=  0.01097732
 Iteration 92 RMS(Cart)=  0.00004176 RMS(Int)=  0.01097704
 Iteration 93 RMS(Cart)=  0.00004365 RMS(Int)=  0.01097674
 Iteration 94 RMS(Cart)=  0.00004573 RMS(Int)=  0.01097643
 Iteration 95 RMS(Cart)=  0.00004801 RMS(Int)=  0.01097612
 Iteration 96 RMS(Cart)=  0.00005054 RMS(Int)=  0.01097579
 Iteration 97 RMS(Cart)=  0.00005333 RMS(Int)=  0.01097544
 Iteration 98 RMS(Cart)=  0.00005645 RMS(Int)=  0.01097509
 Iteration 99 RMS(Cart)=  0.00005994 RMS(Int)=  0.01097472
 Iteration100 RMS(Cart)=  0.00006386 RMS(Int)=  0.01097433
 New curvilinear step not converged.
 ITry= 1 IFail=1 DXMaxC= 1.27D-01 DCOld= 1.00D+10 DXMaxT= 3.00D-01 DXLimC= 3.00D+00 Rises=F
 Iteration  1 RMS(Cart)=  0.17742096 RMS(Int)=  0.02188083
 Iteration  2 RMS(Cart)=  0.10131152 RMS(Int)=  0.00917704
 New curvilinear step failed, DQL= 9.35D-02 SP=-1.00D+00.
 ITry= 2 IFail=1 DXMaxC= 1.23D-01 DCOld= 1.00D+10 DXMaxT= 3.00D-01 DXLimC= 3.00D+00 Rises=F
 Iteration  1 RMS(Cart)=  0.15852914 RMS(Int)=  0.01746149
 Iteration  2 RMS(Cart)=  0.09338910 RMS(Int)=  0.00784986
 New curvilinear step failed, DQL= 2.40D-01 SP=-1.00D+00.
 ITry= 3 IFail=1 DXMaxC= 1.09D-01 DCOld= 1.00D+10 DXMaxT= 3.00D-01 DXLimC= 3.00D+00 Rises=F
 Iteration  1 RMS(Cart)=  0.13937402 RMS(Int)=  0.01349213
 Iteration  2 RMS(Cart)=  0.08572225 RMS(Int)=  0.00665222
 New curvilinear step failed, DQL= 4.57D+00 SP=-9.97D-01.
 ITry= 4 IFail=1 DXMaxC= 9.50D-02 DCOld= 1.00D+10 DXMaxT= 3.00D-01 DXLimC= 3.00D+00 Rises=F
 Iteration  1 RMS(Cart)=  0.11997736 RMS(Int)=  0.00999553
 Iteration  2 RMS(Cart)=  0.07854071 RMS(Int)=  0.00561148
 New curvilinear step failed, DQL= 2.00D-01 SP=-1.00D+00.
 ITry= 5 IFail=1 DXMaxC= 8.11D-02 DCOld= 1.00D+10 DXMaxT= 3.00D-01 DXLimC= 3.00D+00 Rises=F
 Iteration  1 RMS(Cart)=  0.10036314 RMS(Int)=  0.00699321
 Iteration  2 RMS(Cart)=  0.07236651 RMS(Int)=  0.00478233
 New curvilinear step failed, DQL= 2.13D-02 SP=-1.00D+00.
 ITry= 6 IFail=1 DXMaxC= 6.72D-02 DCOld= 1.00D+10 DXMaxT= 3.00D-01 DXLimC= 3.00D+00 Rises=F
 Iteration  1 RMS(Cart)=  0.08055739 RMS(Int)=  0.00450488
 Iteration  2 RMS(Cart)=  0.06871833 RMS(Int)=  0.00432417
 New curvilinear step failed, DQL= 8.00D-04 SP=-1.00D+00.
 ITry= 7 IFail=1 DXMaxC= 5.30D-02 DCOld= 1.00D+10 DXMaxT= 3.00D-01 DXLimC= 3.00D+00 Rises=F
 Iteration  1 RMS(Cart)=  0.06058802 RMS(Int)=  0.00254805
 New curvilinear step failed, DQL= 4.51D-03 SP=-9.78D-01.
 ITry= 8 IFail=1 DXMaxC= 4.81D-02 DCOld= 1.00D+10 DXMaxT= 3.00D-01 DXLimC= 3.00D+00 Rises=F
 Iteration  1 RMS(Cart)=  0.04048458 RMS(Int)=  0.00113760
 New curvilinear step failed, DQL= 3.59D-01 SP=-9.95D-01.
 ITry= 9 IFail=1 DXMaxC= 3.22D-02 DCOld= 1.00D+10 DXMaxT= 3.00D-01 DXLimC= 3.00D+00 Rises=F
 Iteration  1 RMS(Cart)=  0.02027793 RMS(Int)=  0.00028539
 Iteration  2 RMS(Cart)=  0.00958282 RMS(Int)=  0.00008439
 Iteration  3 RMS(Cart)=  0.00682920 RMS(Int)=  0.00004288
 New curvilinear step failed, DQL= 7.20D-02 SP=-1.00D+00.
 ITry=10 IFail=1 DXMaxC= 2.87D-02 DCOld= 1.00D+10 DXMaxT= 3.00D-01 DXLimC= 3.00D+00 Rises=F
 RedQX1 iteration     1 Try  1 RMS(Cart)=  0.04060547 RMS(Int)=  0.13850304 XScale=  4.98782051
 RedQX1 iteration     1 Try  2 RMS(Cart)=  0.04465276 RMS(Int)=  0.10375788 XScale=  2.48377133
 RedQX1 iteration     1 Try  3 RMS(Cart)=  0.06468163 RMS(Int)=  0.07006741 XScale=  1.63590708
 RedQX1 iteration     1 Try  4 RMS(Cart)=  0.15803577 RMS(Int)=  0.07410237 XScale=  1.09861566
 RedQX1 iteration     1 Try  5 RMS(Cart)=  1.11927332 RMS(Int)=  1.14902984 XScale=  0.14719927
 RedQX1 iteration     2 Try  1 RMS(Cart)=  0.22385466 RMS(Int)=  0.20391628 XScale=  0.67246415
 RedQX1 iteration     3 Try  1 RMS(Cart)=  0.04477093 RMS(Int)=  0.09341230 XScale=  1.01665251
 RedQX1 iteration     3 Try  2 RMS(Cart)=  0.06110825 RMS(Int)=  0.12578126 XScale=  0.89638718
 RedQX1 iteration     4 Try  1 RMS(Cart)=  0.05866392 RMS(Int)=  0.12436931 XScale=  0.90128170
 RedQX1 iteration     5 Try  1 RMS(Cart)=  0.01173278 RMS(Int)=  0.09913330 XScale=  0.99421995
 RedQX1 iteration     6 Try  1 RMS(Cart)=  0.00234656 RMS(Int)=  0.09453668 XScale=  1.01220663
 RedQX1 iteration     6 Try  2 RMS(Cart)=  0.00238164 RMS(Int)=  0.09568827 XScale=  1.00767667
 RedQX1 iteration     6 Try  3 RMS(Cart)=  0.00241751 RMS(Int)=  0.09686782 XScale=  1.00306107
 RedQX1 iteration     6 Try  4 RMS(Cart)=  0.00245420 RMS(Int)=  0.09807613 XScale=  0.99835828
 RedQX1 iteration     7 Try  1 RMS(Cart)=  0.00244242 RMS(Int)=  0.09807030 XScale=  0.99838090
 RedQX1 iteration     8 Try  1 RMS(Cart)=  0.00048848 RMS(Int)=  0.09710747 XScale=  1.00212671
 RedQX1 iteration     8 Try  2 RMS(Cart)=  0.00048997 RMS(Int)=  0.09734828 XScale=  1.00118882
 RedQX1 iteration     8 Try  3 RMS(Cart)=  0.00049145 RMS(Int)=  0.09759025 XScale=  1.00024741
 RedQX1 iteration     8 Try  4 RMS(Cart)=  0.00049295 RMS(Int)=  0.09783341 XScale=  0.99930246
 RedQX1 iteration     8 Try  5 RMS(Cart)=  0.00049445 RMS(Int)=  0.09807774 XScale=  0.99835395
 RedQX1 iteration     9 Try  1 RMS(Cart)=  0.00049382 RMS(Int)=  0.09807743 XScale=  0.99835516
 RedQX1 iteration    10 Try  1 RMS(Cart)=  0.00009876 RMS(Int)=  0.09788218 XScale=  0.99911306
 RedQX1 iteration    10 Try  2 RMS(Cart)=  0.00009882 RMS(Int)=  0.09793099 XScale=  0.99892353
 RedQX1 iteration    11 Try  1 RMS(Cart)=  0.00009882 RMS(Int)=  0.09793099 XScale=  0.99892354
 RedQX1 iteration    12 Try  1 RMS(Cart)=  0.00001976 RMS(Int)=  0.09789194 XScale=  0.99907516
 RedQX1 iteration    12 Try  2 RMS(Cart)=  0.00001977 RMS(Int)=  0.09790170 XScale=  0.99903725
 RedQX1 iteration    12 Try  3 RMS(Cart)=  0.00001977 RMS(Int)=  0.09791147 XScale=  0.99899934
 RedQX1 iteration    13 Try  1 RMS(Cart)=  0.00001977 RMS(Int)=  0.09791147 XScale=  0.99899934
 RedQX1 iteration    14 Try  1 RMS(Cart)=  0.00000395 RMS(Int)=  0.09790365 XScale=  0.99902967
 RedQX1 iteration    14 Try  2 RMS(Cart)=  0.00000395 RMS(Int)=  0.09790561 XScale=  0.99902209
 RedQX1 iteration    14 Try  3 RMS(Cart)=  0.00000395 RMS(Int)=  0.09790756 XScale=  0.99901451
 RedQX1 iteration    14 Try  4 RMS(Cart)=  0.00000395 RMS(Int)=  0.09790951 XScale=  0.99900692
 RedQX1 iteration    14 Try  5 RMS(Cart)=  0.00000395 RMS(Int)=  0.09791147 XScale=  0.99899934
 RedQX1 iteration    15 Try  1 RMS(Cart)=  0.00000395 RMS(Int)=  0.09791147 XScale=  0.99899934
 RedQX1 iteration    16 Try  1 RMS(Cart)=  0.00000079 RMS(Int)=  0.09790990 XScale=  0.99900541
 RedQX1 iteration    16 Try  2 RMS(Cart)=  0.00000079 RMS(Int)=  0.09791029 XScale=  0.99900389
 RedQX1 iteration    16 Try  3 RMS(Cart)=  0.00000079 RMS(Int)=  0.09791068 XScale=  0.99900237
 RedQX1 iteration    16 Try  4 RMS(Cart)=  0.00000079 RMS(Int)=  0.09791108 XScale=  0.99900086
 RedQX1 iteration    16 Try  5 RMS(Cart)=  0.00000079 RMS(Int)=  0.09791147 XScale=  0.99899934
 RedQX1 iteration    17 Try  1 RMS(Cart)=  0.00000079 RMS(Int)=  0.09791147 XScale=  0.99899934
 RedQX1 iteration    18 Try  1 RMS(Cart)=  0.00000016 RMS(Int)=  0.09791115 XScale=  0.99900055
 RedQX1 iteration    18 Try  2 RMS(Cart)=  0.00000016 RMS(Int)=  0.09791123 XScale=  0.99900025
 RedQX1 iteration    18 Try  3 RMS(Cart)=  0.00000016 RMS(Int)=  0.09791131 XScale=  0.99899995
 RedQX1 iteration    19 Try  1 RMS(Cart)=  0.00000016 RMS(Int)=  0.09791131 XScale=  0.99899995
 RedQX1 iteration    20 Try  1 RMS(Cart)=  0.00000003 RMS(Int)=  0.09791125 XScale=  0.99900019
 ClnCor:  largest displacement from symmetrization is 7.95D-15 for atom     3.
 B after Tr=     1.213053    3.619930    0.243150
         Rot=    0.000000    0.933489   -0.323246    0.155273 Ang= 180.00 deg.
 Variable       Old X    -DE/DX   Delta X   Delta X   Delta X     New X
                                 (Linear)    (Quad)   (Total)
    R1       10.99831  -0.00043   0.00000   0.20221   0.17434  11.17265
    R2        1.85460   0.00014   0.00000  -0.00044   0.16230   2.01689
    R3       12.85100  -0.00046   0.00000   0.22161   0.18288  13.03388
         Item               Value     Threshold  Converged?
 Maximum Force            0.000456     0.000450     NO 
 RMS     Force            0.000373     0.000300     NO 
 Maximum Displacement     0.266765     0.001800     NO 
 RMS     Displacement     0.291160     0.001200     NO 
 Predicted change in Energy= 6.527630D-03
 GradGradGradGradGradGradGradGradGradGradGradGradGradGradGradGradGradGrad

                          Input orientation:                          
 ---------------------------------------------------------------------
 Center     Atomic      Atomic             Coordinates (Angstroms)
 Number     Number       Type             X           Y           Z
 ---------------------------------------------------------------------
      1          8           0       -0.581461    1.095699    0.065905
      2         17           0       -6.010244    3.175312   -1.010642
      3          1           0        0.479768    1.052211   -0.039058
 ---------------------------------------------------------------------
                    Distance matrix (angstroms):
                    1          2          3
     1  O    0.000000
     2  Cl   5.912311   0.000000
     3  H    1.067294   6.897231   0.000000
 Stoichiometry    ClHO
 Framework group  CS[SG(ClHO)]
 Deg. of freedom     3
 Full point group                 CS      NOp   2
 Largest Abelian subgroup         CS      NOp   2
 Largest concise Abelian subgroup C1      NOp   1
                         Standard orientation:                         
 ---------------------------------------------------------------------
 Center     Atomic      Atomic             Coordinates (Angstroms)
 Number     Number       Type             X           Y           Z
 ---------------------------------------------------------------------
      1          8           0        0.017071    3.828410    0.000000
      2         17           0        0.017071   -2.083901   -0.000000
      3          1           0       -0.426784    4.799033    0.000000
 ---------------------------------------------------------------------
 Rotational constants (GHZ):        2764.7847533           1.2367840           1.2362310
 Standard basis: SVP (5D, 7F)
 There are    29 symmetry adapted cartesian basis functions of A'  symmetry.
 There are    10 symmetry adapted cartesian basis functions of A"  symmetry.
 There are    27 symmetry adapted basis functions of A'  symmetry.
 There are    10 symmetry adapted basis functions of A"  symmetry.
    37 basis functions,    69 primitive gaussians,    39 cartesian basis functions
    13 alpha electrons       13 beta electrons
       nuclear repulsion energy        17.4433732411 Hartrees.
 NAtoms=    3 NActive=    3 NUniq=    3 SFac= 1.00D+00 NAtFMM=   60 NAOKFM=F Big=F
 Integral buffers will be    131072 words long.
 Raffenetti 2 integral format.
 Two-electron integral symmetry is turned on.
 Nuclear repulsion after empirical dispersion term =       17.4430975116 Hartrees.
 One-electron integrals computed using PRISM.
 NBasis=    37 RedAO= T EigKep=  6.55D-02  NBF=    27    10
 NBsUse=    37 1.00D-06 EigRej= -1.00D+00 NBFU=    27    10
 Initial guess from the checkpoint file:  "/tmp/Gau-6878.chk"
 B after Tr=    -0.000000    0.000000   -0.000000
         Rot=    0.999990    0.000000   -0.000000   -0.004449 Ang=  -0.51 deg.
 Initial guess orbital symmetries:
       Occupied  (A') (A') (A') (A') (A') (A") (A') (A') (A') (A")
                 (A') (A") (A')
       Virtual   (A') (A') (A') (A') (A') (A') (A") (A") (A') (A')
                 (A') (A') (A") (A') (A") (A') (A') (A") (A') (A")
                 (A') (A') (A") (A')
 ExpMin= 1.22D-01 ExpMax= 1.04D+04 ExpMxC= 1.57D+03 IAcc=2 IRadAn=         4 AccDes= 0.00D+00
 Harris functional with IExCor=  402 and IRadAn=       4 diagonalized for initial guess.
 HarFok:  IExCor=  402 AccDes= 0.00D+00 IRadAn=         4 IDoV= 1 UseB2=F ITyADJ=14
 ICtDFT=  3500011 ScaDFX=  1.000000  1.000000  1.000000  1.000000
 FoFCou: FMM=F IPFlag=           0 FMFlag=      100000 FMFlg1=           0
         NFxFlg=           0 DoJE=T BraDBF=F KetDBF=T FulRan=T
         wScrn=  0.000000 ICntrl=       500 IOpCl=  0 I1Cent=   200000004 NGrid=           0
         NMat0=    1 NMatS0=      1 NMatT0=    0 NMatD0=    1 NMtDS0=    0 NMtDT0=    0
 Petite list used in FoFCou.
 Keep R1 ints in memory in symmetry-blocked form, NReq=7153137.
 Requested convergence on RMS density matrix=1.00D-08 within 128 cycles.
 Requested convergence on MAX density matrix=1.00D-06.
 Requested convergence on             energy=1.00D-06.
 No special actions if energy rises.
 Integral accuracy reduced to 1.0D-05 until final iterations.
 Problem detected with inexpensive integrals.
 Switching to full accuracy and repeating last cycle.
 >>>>>>>>>> Convergence criterion not met.
 SCF Done:  E(RB3LYP) =  -519.554449868     A.U. after  129 cycles
            NFock=128  Conv=0.52D-02     -V/T= 1.9654
 Convergence failure -- run terminated.
 Error termination via Lnk1e in /share/apps/g16.a03/g16/l502.exe at Thu Mar  6 16:40:11 2025.
 Job cpu time:       0 days  0 hours  9 minutes 30.3 seconds.
 Elapsed time:       0 days  0 hours  1 minutes 13.5 seconds.
 File lengths (MBytes):  RWF=      6 Int=      0 D2E=      0 Chk=      1 Scr=      1
