 Entering Gaussian System, Link 0=g16
 Input=ts.gjf
 Output=ts.log
 Initial command:
 /share/apps/g16.a03/g16/l1.exe "/tmp/Gau-10688.inp" -scrdir="/tmp/"
 Entering Link 1 = /share/apps/g16.a03/g16/l1.exe PID=     10690.
  
 Copyright (c) 1988,1990,1992,1993,1995,1998,2003,2009,2016,
            Gaussian, Inc.  All Rights Reserved.
  
 This is part of the Gaussian(R) 16 program.  It is based on
 the Gaussian(R) 09 system (copyright 2009, Gaussian, Inc.),
 the Gaussian(R) 03 system (copyright 2003, Gaussian, Inc.),
 the Gaussian(R) 98 system (copyright 1998, Gaussian, Inc.),
 the Gaussian(R) 94 system (copyright 1995, Gaussian, Inc.),
 the Gaussian 92(TM) system (copyright 1992, Gaussian, Inc.),
 the Gaussian 90(TM) system (copyright 1990, Gaussian, Inc.),
 the Gaussian 88(TM) system (copyright 1988, Gaussian, Inc.),
 the Gaussian 86(TM) system (copyright 1986, Carnegie Mellon
 University), and the Gaussian 82(TM) system (copyright 1983,
 Carnegie Mellon University). Gaussian is a federally registered
 trademark of Gaussian, Inc.
  
 This software contains proprietary and confidential information,
 including trade secrets, belonging to Gaussian, Inc.
  
 This software is provided under written license and may be
 used, copied, transmitted, or stored only in accord with that
 written license.
  
 The following legend is applicable only to US Government
 contracts under FAR:
  
                    RESTRICTED RIGHTS LEGEND
  
 Use, reproduction and disclosure by the US Government is
 subject to restrictions as set forth in subparagraphs (a)
 and (c) of the Commercial Computer Software - Restricted
 Rights clause in FAR 52.227-19.
  
 Gaussian, Inc.
 340 Quinnipiac St., Bldg. 40, Wallingford CT 06492
  
  
 ---------------------------------------------------------------
 Warning -- This program may not be used in any manner that
 competes with the business of Gaussian, Inc. or will provide
 assistance to any competitor of Gaussian, Inc.  The licensee
 of this program is prohibited from giving any competitor of
 Gaussian, Inc. access to this program.  By using this program,
 the user acknowledges that Gaussian, Inc. is engaged in the
 business of creating and licensing software in the field of
 computational chemistry and represents and warrants to the
 licensee that it is not a competitor of Gaussian, Inc. and that
 it will not use this program in any manner prohibited above.
 ---------------------------------------------------------------
  

 Cite this work as:
 Gaussian 16, Revision A.03,
 M. J. Frisch, G. W. Trucks, H. B. Schlegel, G. E. Scuseria, 
 M. A. Robb, J. R. Cheeseman, G. Scalmani, V. Barone, 
 G. A. Petersson, H. Nakatsuji, X. Li, M. Caricato, A. V. Marenich, 
 J. Bloino, B. G. Janesko, R. Gomperts, B. Mennucci, H. P. Hratchian, 
 J. V. Ortiz, A. F. Izmaylov, J. L. Sonnenberg, D. Williams-Young, 
 F. Ding, F. Lipparini, F. Egidi, J. Goings, B. Peng, A. Petrone, 
 T. Henderson, D. Ranasinghe, V. G. Zakrzewski, J. Gao, N. Rega, 
 G. Zheng, W. Liang, M. Hada, M. Ehara, K. Toyota, R. Fukuda, 
 J. Hasegawa, M. Ishida, T. Nakajima, Y. Honda, O. Kitao, H. Nakai, 
 T. Vreven, K. Throssell, J. A. Montgomery, Jr., J. E. Peralta, 
 F. Ogliaro, M. J. Bearpark, J. J. Heyd, E. N. Brothers, K. N. Kudin, 
 V. N. Staroverov, T. A. Keith, R. Kobayashi, J. Normand, 
 K. Raghavachari, A. P. Rendell, J. C. Burant, S. S. Iyengar, 
 J. Tomasi, M. Cossi, J. M. Millam, M. Klene, C. Adamo, R. Cammi, 
 J. W. Ochterski, R. L. Martin, K. Morokuma, O. Farkas, 
 J. B. Foresman, and D. J. Fox, Gaussian, Inc., Wallingford CT, 2016.
 
 ******************************************
 Gaussian 16:  EM64L-G16RevA.03 25-Dec-2016
                 6-Mar-2025 
 ******************************************
 %nproc=8
 Will use up to    8 processors via shared memory.
 %mem=4000MB
 --------------------------------------------------------------------
 #opt=(noeigen,calcfc,ts,recalc=5,maxcyc=200) freq B3LYP/SVP em=GD3BJ
 --------------------------------------------------------------------
 1/5=1,6=200,10=4,11=1,18=20,26=3,38=1,71=5/1,3;
 2/9=110,12=2,17=6,18=5,40=1/2;
 3/5=18,7=101,11=2,25=1,30=1,71=2,74=-5,124=41,140=1/1,2,3;
 4//1;
 5/5=2,38=5/2;
 8/6=4,10=90,11=11/1;
 11/6=1,8=1,9=11,15=111,16=1/1,2,10;
 10/6=1,13=1/2;
 6/7=2,8=2,9=2,10=2,28=1/1;
 7/10=1,18=20,25=1/1,2,3,16;
 1/5=1,6=200,10=4,11=1,18=20,26=3,71=5/3(2);
 2/9=110/2;
 99//99;
 2/9=110/2;
 3/5=18,7=101,11=2,25=1,30=1,71=1,74=-5,124=41/1,2,3;
 4/5=5,16=3,69=1/1;
 5/5=2,38=5/2;
 7//1,2,3,16;
 1/5=1,6=200,11=1,18=20,26=3,71=5/3(-5);
 2/9=110/2;
 6/7=2,8=2,9=2,10=2,19=2,28=1/1;
 99/9=1/99;
 ----------
 ts-264.gjf
 ----------
 Symbolic Z-matrix:
 Charge =  0 Multiplicity = 1
 O                    -2.28092   0.8979   -0.17405 
 Cl                   -3.72126   1.87374  -0.61562 
 H                    -2.31951   0.49254  -1.05231 
 

 GradGradGradGradGradGradGradGradGradGradGradGradGradGradGradGradGradGrad
 Berny optimization.
 Initialization pass.
                           ----------------------------
                           !    Initial Parameters    !
                           ! (Angstroms and Degrees)  !
 --------------------------                            --------------------------
 ! Name  Definition              Value          Derivative Info.                !
 --------------------------------------------------------------------------------
 ! R1    R(1,2)                  1.7949         calculate D2E/DX2 analytically  !
 ! R2    R(1,3)                  0.9681         calculate D2E/DX2 analytically  !
 ! A1    A(2,1,3)               88.4228         calculate D2E/DX2 analytically  !
 --------------------------------------------------------------------------------
 Trust Radius=3.00D-01 FncErr=1.00D-07 GrdErr=1.00D-06 EigMax=2.50D+02 EigMin=1.00D-04
 Number of steps in this run=    100 maximum allowed number of steps=    100.
 Search for a saddle point of order  1.
 GradGradGradGradGradGradGradGradGradGradGradGradGradGradGradGradGradGrad

                          Input orientation:                          
 ---------------------------------------------------------------------
 Center     Atomic      Atomic             Coordinates (Angstroms)
 Number     Number       Type             X           Y           Z
 ---------------------------------------------------------------------
      1          8           0       -2.280920    0.897898   -0.174053
      2         17           0       -3.721259    1.873744   -0.615619
      3          1           0       -2.319513    0.492535   -1.052310
 ---------------------------------------------------------------------
                    Distance matrix (angstroms):
                    1          2          3
     1  O    0.000000
     2  Cl   1.794947   0.000000
     3  H    0.968063   2.015770   0.000000
 Stoichiometry    ClHO
 Framework group  CS[SG(ClHO)]
 Deg. of freedom     3
 Full point group                 CS      NOp   2
 Largest Abelian subgroup         CS      NOp   2
 Largest concise Abelian subgroup C1      NOp   1
                         Standard orientation:                         
 ---------------------------------------------------------------------
 Center     Atomic      Atomic             Coordinates (Angstroms)
 Number     Number       Type             X           Y           Z
 ---------------------------------------------------------------------
      1          8           0        0.037219    1.174644    0.000000
      2         17           0        0.037219   -0.620303   -0.000000
      3          1           0       -0.930477    1.148000    0.000000
 ---------------------------------------------------------------------
 Rotational constants (GHZ):         568.8149483          13.7214538          13.3982495
 Standard basis: SVP (5D, 7F)
 There are    29 symmetry adapted cartesian basis functions of A'  symmetry.
 There are    10 symmetry adapted cartesian basis functions of A"  symmetry.
 There are    27 symmetry adapted basis functions of A'  symmetry.
 There are    10 symmetry adapted basis functions of A"  symmetry.
    37 basis functions,    69 primitive gaussians,    39 cartesian basis functions
    13 alpha electrons       13 beta electrons
       nuclear repulsion energy        48.9307393386 Hartrees.
 NAtoms=    3 NActive=    3 NUniq=    3 SFac= 1.00D+00 NAtFMM=   60 NAOKFM=F Big=F
 Integral buffers will be    131072 words long.
 Raffenetti 2 integral format.
 Two-electron integral symmetry is turned on.
 Nuclear repulsion after empirical dispersion term =       48.9291194497 Hartrees.
 One-electron integrals computed using PRISM.
 NBasis=    37 RedAO= T EigKep=  3.79D-02  NBF=    27    10
 NBsUse=    37 1.00D-06 EigRej= -1.00D+00 NBFU=    27    10
 ExpMin= 1.22D-01 ExpMax= 1.04D+04 ExpMxC= 1.57D+03 IAcc=3 IRadAn=         5 AccDes= 0.00D+00
 Harris functional with IExCor=  402 and IRadAn=       5 diagonalized for initial guess.
 HarFok:  IExCor=  402 AccDes= 0.00D+00 IRadAn=         5 IDoV= 1 UseB2=F ITyADJ=14
 ICtDFT=  3500011 ScaDFX=  1.000000  1.000000  1.000000  1.000000
 FoFCou: FMM=F IPFlag=           0 FMFlag=      100000 FMFlg1=           0
         NFxFlg=           0 DoJE=T BraDBF=F KetDBF=T FulRan=T
         wScrn=  0.000000 ICntrl=       500 IOpCl=  0 I1Cent=   200000004 NGrid=           0
         NMat0=    1 NMatS0=      1 NMatT0=    0 NMatD0=    1 NMtDS0=    0 NMtDT0=    0
 Petite list used in FoFCou.
 Initial guess orbital symmetries:
       Occupied  (A') (A') (A') (A') (A') (A") (A') (A') (A') (A')
                 (A") (A') (A")
       Virtual   (A') (A') (A') (A') (A') (A") (A') (A') (A") (A')
                 (A") (A') (A') (A") (A') (A') (A") (A') (A') (A")
                 (A') (A") (A') (A')
 The electronic state of the initial guess is 1-A'.
 Keep R1 ints in memory in symmetry-blocked form, NReq=7153137.
 Requested convergence on RMS density matrix=1.00D-08 within 128 cycles.
 Requested convergence on MAX density matrix=1.00D-06.
 Requested convergence on             energy=1.00D-06.
 No special actions if energy rises.
 Integral accuracy reduced to 1.0D-05 until final iterations.
 Initial convergence to 1.0D-05 achieved.  Increase integral accuracy.
 SCF Done:  E(RB3LYP) =  -535.754323281     A.U. after   12 cycles
            NFock= 12  Conv=0.67D-08     -V/T= 2.0027
 DoSCS=F DFT=T ScalE2(SS,OS)=  1.000000  1.000000
 Range of M.O.s used for correlation:     1    37
 NBasis=    37 NAE=    13 NBE=    13 NFC=     0 NFV=     0
 NROrb=     37 NOA=    13 NOB=    13 NVA=    24 NVB=    24
 Symmetrizing basis deriv contribution to polar:
 IMax=3 JMax=2 DiffMx= 0.00D+00
 G2DrvN: will do     4 centers at a time, making    1 passes.
 Calling FoFCou, ICntrl=  3107 FMM=F I1Cent=   0 AccDes= 0.00D+00.
 End of G2Drv F.D. properties file   721 does not exist.
 End of G2Drv F.D. properties file   722 does not exist.
 End of G2Drv F.D. properties file   788 does not exist.
          IDoAtm=111
          Differentiating once with respect to nuclear coordinates.
 Keep R1 ints in memory in symmetry-blocked form, NReq=7127942.
          There are    12 degrees of freedom in the 1st order CPHF.  IDoFFX=6 NUNeed=     0.
      6 vectors produced by pass  0 Test12= 2.60D-15 8.33D-09 XBig12= 7.54D-02 1.72D-01.
 AX will form     6 AO Fock derivatives at one time.
      6 vectors produced by pass  1 Test12= 2.60D-15 8.33D-09 XBig12= 2.95D-02 7.91D-02.
      6 vectors produced by pass  2 Test12= 2.60D-15 8.33D-09 XBig12= 9.73D-04 8.96D-03.
      6 vectors produced by pass  3 Test12= 2.60D-15 8.33D-09 XBig12= 3.36D-05 1.87D-03.
      6 vectors produced by pass  4 Test12= 2.60D-15 8.33D-09 XBig12= 3.16D-07 2.27D-04.
      6 vectors produced by pass  5 Test12= 2.60D-15 8.33D-09 XBig12= 8.90D-10 1.05D-05.
      3 vectors produced by pass  6 Test12= 2.60D-15 8.33D-09 XBig12= 8.49D-13 3.15D-07.
      1 vectors produced by pass  7 Test12= 2.60D-15 8.33D-09 XBig12= 1.10D-15 1.23D-08.
 InvSVY:  IOpt=1 It=  1 EMax= 1.11D-16
 Solved reduced A of dimension    40 with     6 vectors.
 End of Minotr F.D. properties file   721 does not exist.
 End of Minotr F.D. properties file   722 does not exist.
 End of Minotr F.D. properties file   788 does not exist.

 **********************************************************************

            Population analysis using the SCF density.

 **********************************************************************

 Orbital symmetries:
       Occupied  (A') (A') (A') (A') (A') (A") (A') (A') (A') (A')
                 (A") (A') (A")
       Virtual   (A') (A') (A') (A') (A') (A") (A') (A') (A") (A')
                 (A") (A') (A") (A') (A') (A') (A") (A') (A') (A")
                 (A') (A') (A") (A')
 The electronic state is 1-A'.
 Alpha  occ. eigenvalues -- -101.54325 -19.20584  -9.49480  -7.26798  -7.25205
 Alpha  occ. eigenvalues --   -7.25166  -1.04004  -0.79294  -0.50712  -0.44087
 Alpha  occ. eigenvalues --   -0.39270  -0.32136  -0.28879
 Alpha virt. eigenvalues --   -0.09715   0.05856   0.46609   0.56111   0.67718
 Alpha virt. eigenvalues --    0.69371   0.70222   0.75558   0.75859   0.83681
 Alpha virt. eigenvalues --    0.84036   0.91979   1.00064   1.00532   1.09262
 Alpha virt. eigenvalues --    1.37901   1.39597   1.52810   2.16955   2.60505
 Alpha virt. eigenvalues --    2.81065   2.92952   2.92983   3.64664
          Condensed to atoms (all electrons):
               1          2          3
     1  O    7.839842   0.123010   0.302237
     2  Cl   0.123010  16.839614  -0.021457
     3  H    0.302237  -0.021457   0.512963
 Mulliken charges:
               1
     1  O   -0.265089
     2  Cl   0.058833
     3  H    0.206257
 Sum of Mulliken charges =  -0.00000
 Mulliken charges with hydrogens summed into heavy atoms:
               1
     1  O   -0.058833
     2  Cl   0.058833
 APT charges:
               1
     1  O   -0.429857
     2  Cl   0.091072
     3  H    0.338786
 Sum of APT charges =  -0.00000
 APT charges with hydrogens summed into heavy atoms:
               1
     1  O   -0.091072
     2  Cl   0.091072
 Electronic spatial extent (au):  <R**2>=            109.4895
 Charge=             -0.0000 electrons
 Dipole moment (field-independent basis, Debye):
    X=             -1.6280    Y=             -0.1974    Z=              0.0000  Tot=              1.6399
 Quadrupole moment (field-independent basis, Debye-Ang):
   XX=            -16.4931   YY=            -17.0407   ZZ=            -18.6404
   XY=             -2.1262   XZ=              0.0000   YZ=              0.0000
 Traceless Quadrupole moment (field-independent basis, Debye-Ang):
   XX=              0.8983   YY=              0.3507   ZZ=             -1.2490
   XY=             -2.1262   XZ=              0.0000   YZ=              0.0000
 Octapole moment (field-independent basis, Debye-Ang**2):
  XXX=             -2.1933  YYY=             -0.7452  ZZZ=             -0.0000  XYY=             -2.7788
  XXY=              3.0315  XXZ=             -0.0000  XZZ=             -0.2395  YZZ=              0.5788
  YYZ=             -0.0000  XYZ=             -0.0000
 Hexadecapole moment (field-independent basis, Debye-Ang**3):
 XXXX=            -16.8043 YYYY=            -83.9510 ZZZZ=            -16.6689 XXXY=             -0.2980
 XXXZ=              0.0000 YYYX=             -1.6399 YYYZ=              0.0000 ZZZX=              0.0000
 ZZZY=             -0.0000 XXYY=            -16.1496 XXZZ=             -5.8870 YYZZ=            -18.6490
 XXYZ=              0.0000 YYXZ=              0.0000 ZZXY=              0.4635
 N-N= 4.892911944970D+01 E-N=-1.370763845046D+03  KE= 5.343359044537D+02
 Symmetry A'   KE= 4.835810616197D+02
 Symmetry A"   KE= 5.075484283407D+01
  Exact polarizability:   0.000   0.000   0.000   0.000   0.000   0.000
 Approx polarizability:  14.709  -0.539  41.938  -0.000   0.000  10.110
 Calling FoFJK, ICntrl=    100147 FMM=F ISym2X=1 I1Cent= 0 IOpClX= 0 NMat=1 NMatS=1 NMatT=0.
 ***** Axes restored to original set *****
 -------------------------------------------------------------------
 Center     Atomic                   Forces (Hartrees/Bohr)
 Number     Number              X              Y              Z
 -------------------------------------------------------------------
      1        8          -0.027675497    0.016261004   -0.013483079
      2       17           0.010947417   -0.002337061    0.013556145
      3        1           0.016728079   -0.013923943   -0.000073066
 -------------------------------------------------------------------
 Cartesian Forces:  Max     0.027675497 RMS     0.014888227
 FormGI is forming the generalized inverse of G from B-inverse, IUseBI=4.

 GradGradGradGradGradGradGradGradGradGradGradGradGradGradGradGradGradGrad
 Berny optimization.
 Internal  Forces:  Max     0.038647812 RMS     0.023807019
 Search for a saddle point.
 Step number   1 out of a maximum of  100
 All quantities printed in internal units (Hartrees-Bohrs-Radians)
 Swapping is turned off.
 Second derivative matrix not updated -- analytic derivatives used.
 The second derivative matrix:
                          R1        R2        A1
           R1           0.17928
           R2          -0.00880   0.52383
           A1           0.07188   0.00297   0.19799
 ITU=  0
     Eigenvalues ---    0.11597   0.26107   0.52406
 Eigenvectors required to have negative eigenvalues:
                          R1        A1        R2
   1                   -0.75151   0.65938  -0.02102
 RFO step:  Lambda0=1.259385485D-01 Lambda=-1.63026435D-03.
 Linear search not attempted -- option 19 set.
 Iteration  1 RMS(Cart)=  0.05353325 RMS(Int)=  0.00012347
 Iteration  2 RMS(Cart)=  0.00016280 RMS(Int)=  0.00000002
 Iteration  3 RMS(Cart)=  0.00000001 RMS(Int)=  0.00000000
 ClnCor:  largest displacement from symmetrization is 1.90D-15 for atom     3.
 Variable       Old X    -DE/DX   Delta X   Delta X   Delta X     New X
                                 (Linear)    (Quad)   (Total)
    R1        3.39196  -0.01339   0.00000   0.10931   0.10931   3.50126
    R2        1.82937   0.00523   0.00000   0.01353   0.01353   1.84291
    A1        1.54327   0.03865   0.00000   0.00668   0.00668   1.54995
         Item               Value     Threshold  Converged?
 Maximum Force            0.038648     0.000450     NO 
 RMS     Force            0.023807     0.000300     NO 
 Maximum Displacement     0.058042     0.001800     NO 
 RMS     Displacement     0.053617     0.001200     NO 
 Predicted change in Energy= 2.297882D-03
 GradGradGradGradGradGradGradGradGradGradGradGradGradGradGradGradGradGrad

                          Input orientation:                          
 ---------------------------------------------------------------------
 Center     Atomic      Atomic             Coordinates (Angstroms)
 Number     Number       Type             X           Y           Z
 ---------------------------------------------------------------------
      1          8           0       -2.265467    0.886687   -0.170805
      2         17           0       -3.751974    1.899231   -0.615644
      3          1           0       -2.304251    0.478260   -1.055533
 ---------------------------------------------------------------------
                    Distance matrix (angstroms):
                    1          2          3
     1  O    0.000000
     2  Cl   1.852790   0.000000
     3  H    0.975224   2.075708   0.000000
 Stoichiometry    ClHO
 Framework group  CS[SG(ClHO)]
 Deg. of freedom     3
 Full point group                 CS      NOp   2
 Largest Abelian subgroup         CS      NOp   2
 Largest concise Abelian subgroup C1      NOp   1
                         Standard orientation:                         
 ---------------------------------------------------------------------
 Center     Atomic      Atomic             Coordinates (Angstroms)
 Number     Number       Type             X           Y           Z
 ---------------------------------------------------------------------
      1          8           0        0.037500    1.212221   -0.000000
      2         17           0        0.037500   -0.640568    0.000000
      3          1           0       -0.937511    1.191893   -0.000000
 ---------------------------------------------------------------------
 Rotational constants (GHZ):         560.5419421          12.8727631          12.5837785
 Standard basis: SVP (5D, 7F)
 There are    29 symmetry adapted cartesian basis functions of A'  symmetry.
 There are    10 symmetry adapted cartesian basis functions of A"  symmetry.
 There are    27 symmetry adapted basis functions of A'  symmetry.
 There are    10 symmetry adapted basis functions of A"  symmetry.
    37 basis functions,    69 primitive gaussians,    39 cartesian basis functions
    13 alpha electrons       13 beta electrons
       nuclear repulsion energy        47.5180238030 Hartrees.
 NAtoms=    3 NActive=    3 NUniq=    3 SFac= 1.00D+00 NAtFMM=   60 NAOKFM=F Big=F
 Integral buffers will be    131072 words long.
 Raffenetti 2 integral format.
 Two-electron integral symmetry is turned on.
 Nuclear repulsion after empirical dispersion term =       47.5164076573 Hartrees.
 One-electron integrals computed using PRISM.
 NBasis=    37 RedAO= T EigKep=  4.10D-02  NBF=    27    10
 NBsUse=    37 1.00D-06 EigRej= -1.00D+00 NBFU=    27    10
 Initial guess from the checkpoint file:  "/tmp/Gau-10690.chk"
 B after Tr=    -0.000000    0.000000    0.000000
         Rot=    1.000000    0.000000   -0.000000    0.000834 Ang=   0.10 deg.
 Initial guess orbital symmetries:
       Occupied  (A') (A') (A') (A') (A') (A") (A') (A') (A') (A')
                 (A") (A') (A")
       Virtual   (A') (A') (A') (A') (A') (A") (A') (A') (A") (A')
                 (A") (A') (A") (A') (A') (A') (A") (A') (A') (A")
                 (A') (A') (A") (A')
 ExpMin= 1.22D-01 ExpMax= 1.04D+04 ExpMxC= 1.57D+03 IAcc=2 IRadAn=         4 AccDes= 0.00D+00
 Harris functional with IExCor=  402 and IRadAn=       4 diagonalized for initial guess.
 HarFok:  IExCor=  402 AccDes= 0.00D+00 IRadAn=         4 IDoV= 1 UseB2=F ITyADJ=14
 ICtDFT=  3500011 ScaDFX=  1.000000  1.000000  1.000000  1.000000
 FoFCou: FMM=F IPFlag=           0 FMFlag=      100000 FMFlg1=           0
         NFxFlg=           0 DoJE=T BraDBF=F KetDBF=T FulRan=T
         wScrn=  0.000000 ICntrl=       500 IOpCl=  0 I1Cent=   200000004 NGrid=           0
         NMat0=    1 NMatS0=      1 NMatT0=    0 NMatD0=    1 NMtDS0=    0 NMtDT0=    0
 Petite list used in FoFCou.
 Keep R1 ints in memory in symmetry-blocked form, NReq=7153137.
 Requested convergence on RMS density matrix=1.00D-08 within 128 cycles.
 Requested convergence on MAX density matrix=1.00D-06.
 Requested convergence on             energy=1.00D-06.
 No special actions if energy rises.
 Integral accuracy reduced to 1.0D-05 until final iterations.
 Initial convergence to 1.0D-05 achieved.  Increase integral accuracy.
 SCF Done:  E(RB3LYP) =  -535.752133249     A.U. after   11 cycles
            NFock= 11  Conv=0.18D-08     -V/T= 2.0028
 Calling FoFJK, ICntrl=      2127 FMM=F ISym2X=1 I1Cent= 0 IOpClX= 0 NMat=1 NMatS=1 NMatT=0.
 ***** Axes restored to original set *****
 -------------------------------------------------------------------
 Center     Atomic                   Forces (Hartrees/Bohr)
 Number     Number              X              Y              Z
 -------------------------------------------------------------------
      1        8          -0.037823257    0.021735123   -0.019407358
      2       17           0.024682394   -0.012974193    0.015093322
      3        1           0.013140862   -0.008760930    0.004314037
 -------------------------------------------------------------------
 Cartesian Forces:  Max     0.037823257 RMS     0.019869199

 GradGradGradGradGradGradGradGradGradGradGradGradGradGradGradGradGradGrad
 Berny optimization.
 FormGI is forming the generalized inverse of G from B-inverse, IUseBI=4.
 Internal  Forces:  Max     0.030517339 RMS     0.024766860
 Search for a saddle point.
 Step number   2 out of a maximum of  100
 All quantities printed in internal units (Hartrees-Bohrs-Radians)
 Swapping is turned off.
 Update second derivatives using D2CorX and points    1    2
 The second derivative matrix:
                          R1        R2        A1
           R1           0.15393
           R2          -0.01014   0.52377
           A1           0.06552   0.00262   0.19643
 ITU=  0  0
     Eigenvalues ---    0.10607   0.24401   0.52405
 Eigenvectors required to have negative eigenvalues:
                          R1        A1        R2
   1                   -0.80900   0.58734  -0.02332
 RFO step:  Lambda0=1.209424373D-01 Lambda=-1.71029049D-04.
 Linear search not attempted -- option 19 set.
 Iteration  1 RMS(Cart)=  0.01949733 RMS(Int)=  0.00002265
 Iteration  2 RMS(Cart)=  0.00002805 RMS(Int)=  0.00000000
 Iteration  3 RMS(Cart)=  0.00000000 RMS(Int)=  0.00000000
 ClnCor:  largest displacement from symmetrization is 1.49D-15 for atom     1.
 Variable       Old X    -DE/DX   Delta X   Delta X   Delta X     New X
                                 (Linear)    (Quad)   (Total)
    R1        3.50126  -0.03052   0.00000   0.03694   0.03694   3.53821
    R2        1.84291  -0.00077   0.00000   0.00124   0.00124   1.84414
    A1        1.54995   0.03014   0.00000   0.00587   0.00587   1.55582
         Item               Value     Threshold  Converged?
 Maximum Force            0.030517     0.000450     NO 
 RMS     Force            0.024767     0.000300     NO 
 Maximum Displacement     0.020829     0.001800     NO 
 RMS     Displacement     0.019513     0.001200     NO 
 Predicted change in Energy= 1.073850D-03
 GradGradGradGradGradGradGradGradGradGradGradGradGradGradGradGradGradGrad

                          Input orientation:                          
 ---------------------------------------------------------------------
 Center     Atomic      Atomic             Coordinates (Angstroms)
 Number     Number       Type             X           Y           Z
 ---------------------------------------------------------------------
      1          8           0       -2.260955    0.882803   -0.171081
      2         17           0       -3.762996    1.908672   -0.615059
      3          1           0       -2.297740    0.472701   -1.055841
 ---------------------------------------------------------------------
                    Distance matrix (angstroms):
                    1          2          3
     1  O    0.000000
     2  Cl   1.872338   0.000000
     3  H    0.975878   2.098399   0.000000
 Stoichiometry    ClHO
 Framework group  CS[SG(ClHO)]
 Deg. of freedom     3
 Full point group                 CS      NOp   2
 Largest Abelian subgroup         CS      NOp   2
 Largest concise Abelian subgroup C1      NOp   1
                         Standard orientation:                         
 ---------------------------------------------------------------------
 Center     Atomic      Atomic             Coordinates (Angstroms)
 Number     Number       Type             X           Y           Z
 ---------------------------------------------------------------------
      1          8           0        0.037530    1.224783   -0.000000
      2         17           0        0.037530   -0.647555    0.000000
      3          1           0       -0.938239    1.210173   -0.000000
 ---------------------------------------------------------------------
 Rotational constants (GHZ):         559.8750022          12.6008280          12.3234698
 Standard basis: SVP (5D, 7F)
 There are    29 symmetry adapted cartesian basis functions of A'  symmetry.
 There are    10 symmetry adapted cartesian basis functions of A"  symmetry.
 There are    27 symmetry adapted basis functions of A'  symmetry.
 There are    10 symmetry adapted basis functions of A"  symmetry.
    37 basis functions,    69 primitive gaussians,    39 cartesian basis functions
    13 alpha electrons       13 beta electrons
       nuclear repulsion energy        47.0627034802 Hartrees.
 NAtoms=    3 NActive=    3 NUniq=    3 SFac= 1.00D+00 NAtFMM=   60 NAOKFM=F Big=F
 Integral buffers will be    131072 words long.
 Raffenetti 2 integral format.
 Two-electron integral symmetry is turned on.
 Nuclear repulsion after empirical dispersion term =       47.0610888261 Hartrees.
 One-electron integrals computed using PRISM.
 NBasis=    37 RedAO= T EigKep=  4.19D-02  NBF=    27    10
 NBsUse=    37 1.00D-06 EigRej= -1.00D+00 NBFU=    27    10
 Initial guess from the checkpoint file:  "/tmp/Gau-10690.chk"
 B after Tr=    -0.000000   -0.000000   -0.000000
         Rot=    1.000000    0.000000   -0.000000    0.000397 Ang=   0.05 deg.
 Initial guess orbital symmetries:
       Occupied  (A') (A') (A') (A') (A') (A") (A') (A') (A') (A')
                 (A") (A') (A")
       Virtual   (A') (A') (A') (A') (A') (A") (A') (A') (A") (A')
                 (A") (A') (A") (A') (A') (A') (A") (A') (A') (A")
                 (A') (A') (A") (A')
 ExpMin= 1.22D-01 ExpMax= 1.04D+04 ExpMxC= 1.57D+03 IAcc=2 IRadAn=         4 AccDes= 0.00D+00
 Harris functional with IExCor=  402 and IRadAn=       4 diagonalized for initial guess.
 HarFok:  IExCor=  402 AccDes= 0.00D+00 IRadAn=         4 IDoV= 1 UseB2=F ITyADJ=14
 ICtDFT=  3500011 ScaDFX=  1.000000  1.000000  1.000000  1.000000
 FoFCou: FMM=F IPFlag=           0 FMFlag=      100000 FMFlg1=           0
         NFxFlg=           0 DoJE=T BraDBF=F KetDBF=T FulRan=T
         wScrn=  0.000000 ICntrl=       500 IOpCl=  0 I1Cent=   200000004 NGrid=           0
         NMat0=    1 NMatS0=      1 NMatT0=    0 NMatD0=    1 NMtDS0=    0 NMtDT0=    0
 Petite list used in FoFCou.
 Keep R1 ints in memory in symmetry-blocked form, NReq=7153137.
 Requested convergence on RMS density matrix=1.00D-08 within 128 cycles.
 Requested convergence on MAX density matrix=1.00D-06.
 Requested convergence on             energy=1.00D-06.
 No special actions if energy rises.
 Integral accuracy reduced to 1.0D-05 until final iterations.
 Initial convergence to 1.0D-05 achieved.  Increase integral accuracy.
 SCF Done:  E(RB3LYP) =  -535.751080253     A.U. after   11 cycles
            NFock= 11  Conv=0.31D-08     -V/T= 2.0029
 Calling FoFJK, ICntrl=      2127 FMM=F ISym2X=1 I1Cent= 0 IOpClX= 0 NMat=1 NMatS=1 NMatT=0.
 ***** Axes restored to original set *****
 -------------------------------------------------------------------
 Center     Atomic                   Forces (Hartrees/Bohr)
 Number     Number              X              Y              Z
 -------------------------------------------------------------------
      1        8          -0.040350926    0.023779994   -0.019514953
      2       17           0.028603762   -0.016142080    0.015269232
      3        1           0.011747164   -0.007637914    0.004245721
 -------------------------------------------------------------------
 Cartesian Forces:  Max     0.040350926 RMS     0.021345751

 GradGradGradGradGradGradGradGradGradGradGradGradGradGradGradGradGradGrad
 Berny optimization.
 FormGI is forming the generalized inverse of G from B-inverse, IUseBI=4.
 Internal  Forces:  Max     0.035412066 RMS     0.025691485
 Search for a saddle point.
 Step number   3 out of a maximum of  100
 All quantities printed in internal units (Hartrees-Bohrs-Radians)
 Swapping is turned off.
 Update second derivatives using D2CorX and points    1    2    3
 The second derivative matrix:
                          R1        R2        A1
           R1           0.12389
           R2          -0.00943   0.52376
           A1           0.05610   0.00283   0.19351
 ITU=  0  0  0
     Eigenvalues ---    0.09247   0.22471   0.52399
 Eigenvectors required to have negative eigenvalues:
                          R1        A1        R2
   1                   -0.87380   0.48577  -0.02229
 RFO step:  Lambda0=1.100900612D-01 Lambda=-1.77997970D-04.
 Linear search not attempted -- option 19 set.
 Iteration  1 RMS(Cart)=  0.02270105 RMS(Int)=  0.00003983
 Iteration  2 RMS(Cart)=  0.00003943 RMS(Int)=  0.00000000
 Iteration  3 RMS(Cart)=  0.00000000 RMS(Int)=  0.00000000
 ClnCor:  largest displacement from symmetrization is 2.06D-15 for atom     3.
 Variable       Old X    -DE/DX   Delta X   Delta X   Delta X     New X
                                 (Linear)    (Quad)   (Total)
    R1        3.53821  -0.03541   0.00000   0.03825   0.03825   3.57646
    R2        1.84414  -0.00108   0.00000   0.00055   0.00055   1.84469
    A1        1.55582   0.02693   0.00000   0.01092   0.01092   1.56675
         Item               Value     Threshold  Converged?
 Maximum Force            0.035412     0.000450     NO 
 RMS     Force            0.025691     0.000300     NO 
 Maximum Displacement     0.023353     0.001800     NO 
 RMS     Displacement     0.022723     0.001200     NO 
 Predicted change in Energy= 1.186636D-03
 GradGradGradGradGradGradGradGradGradGradGradGradGradGradGradGradGradGrad

                          Input orientation:                          
 ---------------------------------------------------------------------
 Center     Atomic      Atomic             Coordinates (Angstroms)
 Number     Number       Type             X           Y           Z
 ---------------------------------------------------------------------
      1          8           0       -2.257305    0.879114   -0.172406
      2         17           0       -3.775354    1.919669   -0.613579
      3          1           0       -2.289032    0.465395   -1.055997
 ---------------------------------------------------------------------
                    Distance matrix (angstroms):
                    1          2          3
     1  O    0.000000
     2  Cl   1.892580   0.000000
     3  H    0.976168   2.125982   0.000000
 Stoichiometry    ClHO
 Framework group  CS[SG(ClHO)]
 Deg. of freedom     3
 Full point group                 CS      NOp   2
 Largest Abelian subgroup         CS      NOp   2
 Largest concise Abelian subgroup C1      NOp   1
                         Standard orientation:                         
 ---------------------------------------------------------------------
 Center     Atomic      Atomic             Coordinates (Angstroms)
 Number     Number       Type             X           Y           Z
 ---------------------------------------------------------------------
      1          8           0        0.037545    1.237608   -0.000000
      2         17           0        0.037545   -0.654972    0.000000
      3          1           0       -0.938615    1.233655   -0.000000
 ---------------------------------------------------------------------
 Rotational constants (GHZ):         559.7990467          12.3244964          12.0590062
 Standard basis: SVP (5D, 7F)
 There are    29 symmetry adapted cartesian basis functions of A'  symmetry.
 There are    10 symmetry adapted cartesian basis functions of A"  symmetry.
 There are    27 symmetry adapted basis functions of A'  symmetry.
 There are    10 symmetry adapted basis functions of A"  symmetry.
    37 basis functions,    69 primitive gaussians,    39 cartesian basis functions
    13 alpha electrons       13 beta electrons
       nuclear repulsion energy        46.5946807333 Hartrees.
 NAtoms=    3 NActive=    3 NUniq=    3 SFac= 1.00D+00 NAtFMM=   60 NAOKFM=F Big=F
 Integral buffers will be    131072 words long.
 Raffenetti 2 integral format.
 Two-electron integral symmetry is turned on.
 Nuclear repulsion after empirical dispersion term =       46.5930679012 Hartrees.
 One-electron integrals computed using PRISM.
 NBasis=    37 RedAO= T EigKep=  4.28D-02  NBF=    27    10
 NBsUse=    37 1.00D-06 EigRej= -1.00D+00 NBFU=    27    10
 Initial guess from the checkpoint file:  "/tmp/Gau-10690.chk"
 B after Tr=    -0.000000   -0.000000    0.000000
         Rot=    1.000000   -0.000000    0.000000    0.000516 Ang=   0.06 deg.
 Initial guess orbital symmetries:
       Occupied  (A') (A') (A') (A') (A') (A") (A') (A') (A') (A')
                 (A") (A') (A")
       Virtual   (A') (A') (A') (A') (A') (A') (A") (A') (A") (A')
                 (A") (A') (A') (A") (A') (A') (A") (A') (A') (A")
                 (A') (A') (A") (A')
 ExpMin= 1.22D-01 ExpMax= 1.04D+04 ExpMxC= 1.57D+03 IAcc=2 IRadAn=         4 AccDes= 0.00D+00
 Harris functional with IExCor=  402 and IRadAn=       4 diagonalized for initial guess.
 HarFok:  IExCor=  402 AccDes= 0.00D+00 IRadAn=         4 IDoV= 1 UseB2=F ITyADJ=14
 ICtDFT=  3500011 ScaDFX=  1.000000  1.000000  1.000000  1.000000
 FoFCou: FMM=F IPFlag=           0 FMFlag=      100000 FMFlg1=           0
         NFxFlg=           0 DoJE=T BraDBF=F KetDBF=T FulRan=T
         wScrn=  0.000000 ICntrl=       500 IOpCl=  0 I1Cent=   200000004 NGrid=           0
         NMat0=    1 NMatS0=      1 NMatT0=    0 NMatD0=    1 NMtDS0=    0 NMtDT0=    0
 Petite list used in FoFCou.
 Keep R1 ints in memory in symmetry-blocked form, NReq=7153137.
 Requested convergence on RMS density matrix=1.00D-08 within 128 cycles.
 Requested convergence on MAX density matrix=1.00D-06.
 Requested convergence on             energy=1.00D-06.
 No special actions if energy rises.
 Integral accuracy reduced to 1.0D-05 until final iterations.
 Initial convergence to 1.0D-05 achieved.  Increase integral accuracy.
 SCF Done:  E(RB3LYP) =  -535.749903771     A.U. after   11 cycles
            NFock= 11  Conv=0.23D-08     -V/T= 2.0029
 Calling FoFJK, ICntrl=      2127 FMM=F ISym2X=1 I1Cent= 0 IOpClX= 0 NMat=1 NMatS=1 NMatT=0.
 ***** Axes restored to original set *****
 -------------------------------------------------------------------
 Center     Atomic                   Forces (Hartrees/Bohr)
 Number     Number              X              Y              Z
 -------------------------------------------------------------------
      1        8          -0.042448193    0.025788738   -0.018977630
      2       17           0.032436929   -0.019372032    0.015173497
      3        1           0.010011264   -0.006416706    0.003804132
 -------------------------------------------------------------------
 Cartesian Forces:  Max     0.042448193 RMS     0.022707303

 GradGradGradGradGradGradGradGradGradGradGradGradGradGradGradGradGradGrad
 Berny optimization.
 FormGI is forming the generalized inverse of G from B-inverse, IUseBI=4.
 Internal  Forces:  Max     0.040205976 RMS     0.026734807
 Search for a saddle point.
 Step number   4 out of a maximum of  100
 All quantities printed in internal units (Hartrees-Bohrs-Radians)
 Swapping is turned off.
 Update second derivatives using D2CorX and points    1    2    3    4
 The second derivative matrix:
                          R1        R2        A1
           R1           0.11131
           R2          -0.00922   0.52375
           A1           0.04956   0.00295   0.19040
 ITU=  0  0  0  0
     Eigenvalues ---    0.08724   0.21426   0.52397
 Eigenvectors required to have negative eigenvalues:
                          R1        A1        R2
   1                   -0.90092   0.43343  -0.02196
 RFO step:  Lambda0=1.071504225D-01 Lambda=-4.92510124D-05.
 Linear search not attempted -- option 19 set.
 Iteration  1 RMS(Cart)=  0.01277702 RMS(Int)=  0.00001510
 Iteration  2 RMS(Cart)=  0.00001306 RMS(Int)=  0.00000000
 Iteration  3 RMS(Cart)=  0.00000000 RMS(Int)=  0.00000000
 ClnCor:  largest displacement from symmetrization is 1.95D-15 for atom     3.
 Variable       Old X    -DE/DX   Delta X   Delta X   Delta X     New X
                                 (Linear)    (Quad)   (Total)
    R1        3.57646  -0.04021   0.00000   0.02023   0.02023   3.59669
    R2        1.84469  -0.00105   0.00000   0.00031   0.00031   1.84500
    A1        1.56675   0.02295   0.00000   0.00709   0.00709   1.57384
         Item               Value     Threshold  Converged?
 Maximum Force            0.040206     0.000450     NO 
 RMS     Force            0.026735     0.000300     NO 
 Maximum Displacement     0.012842     0.001800     NO 
 RMS     Displacement     0.012783     0.001200     NO 
 Predicted change in Energy= 6.856311D-04
 GradGradGradGradGradGradGradGradGradGradGradGradGradGradGradGradGradGrad

                          Input orientation:                          
 ---------------------------------------------------------------------
 Center     Atomic      Atomic             Coordinates (Angstroms)
 Number     Number       Type             X           Y           Z
 ---------------------------------------------------------------------
      1          8           0       -2.255664    0.877279   -0.173354
      2         17           0       -3.782149    1.925822   -0.612552
      3          1           0       -2.283878    0.461076   -1.056076
 ---------------------------------------------------------------------
                    Distance matrix (angstroms):
                    1          2          3
     1  O    0.000000
     2  Cl   1.903285   0.000000
     3  H    0.976330   2.141731   0.000000
 Stoichiometry    ClHO
 Framework group  CS[SG(ClHO)]
 Deg. of freedom     3
 Full point group                 CS      NOp   2
 Largest Abelian subgroup         CS      NOp   2
 Largest concise Abelian subgroup C1      NOp   1
                         Standard orientation:                         
 ---------------------------------------------------------------------
 Center     Atomic      Atomic             Coordinates (Angstroms)
 Number     Number       Type             X           Y           Z
 ---------------------------------------------------------------------
      1          8           0        0.037551    1.244342    0.000000
      2         17           0        0.037551   -0.658944   -0.000000
      3          1           0       -0.938774    1.247309    0.000000
 ---------------------------------------------------------------------
 Rotational constants (GHZ):         559.8507147          12.1809944          11.9216091
 Standard basis: SVP (5D, 7F)
 There are    29 symmetry adapted cartesian basis functions of A'  symmetry.
 There are    10 symmetry adapted cartesian basis functions of A"  symmetry.
 There are    27 symmetry adapted basis functions of A'  symmetry.
 There are    10 symmetry adapted basis functions of A"  symmetry.
    37 basis functions,    69 primitive gaussians,    39 cartesian basis functions
    13 alpha electrons       13 beta electrons
       nuclear repulsion energy        46.3489617597 Hartrees.
 NAtoms=    3 NActive=    3 NUniq=    3 SFac= 1.00D+00 NAtFMM=   60 NAOKFM=F Big=F
 Integral buffers will be    131072 words long.
 Raffenetti 2 integral format.
 Two-electron integral symmetry is turned on.
 Nuclear repulsion after empirical dispersion term =       46.3473499846 Hartrees.
 One-electron integrals computed using PRISM.
 NBasis=    37 RedAO= T EigKep=  4.33D-02  NBF=    27    10
 NBsUse=    37 1.00D-06 EigRej= -1.00D+00 NBFU=    27    10
 Initial guess from the checkpoint file:  "/tmp/Gau-10690.chk"
 B after Tr=     0.000000    0.000000   -0.000000
         Rot=    1.000000   -0.000000    0.000000    0.000297 Ang=   0.03 deg.
 Initial guess orbital symmetries:
       Occupied  (A') (A') (A') (A') (A') (A") (A') (A') (A') (A')
                 (A") (A') (A")
       Virtual   (A') (A') (A') (A') (A') (A') (A") (A') (A") (A')
                 (A") (A') (A') (A") (A') (A') (A") (A') (A') (A")
                 (A') (A') (A") (A')
 Keep R1 ints in memory in symmetry-blocked form, NReq=7153137.
 Requested convergence on RMS density matrix=1.00D-08 within 128 cycles.
 Requested convergence on MAX density matrix=1.00D-06.
 Requested convergence on             energy=1.00D-06.
 No special actions if energy rises.
 SCF Done:  E(RB3LYP) =  -535.749220487     A.U. after    9 cycles
            NFock=  9  Conv=0.28D-08     -V/T= 2.0029
 Calling FoFJK, ICntrl=      2127 FMM=F ISym2X=1 I1Cent= 0 IOpClX= 0 NMat=1 NMatS=1 NMatT=0.
 ***** Axes restored to original set *****
 -------------------------------------------------------------------
 Center     Atomic                   Forces (Hartrees/Bohr)
 Number     Number              X              Y              Z
 -------------------------------------------------------------------
      1        8          -0.043373204    0.026744942   -0.018599610
      2       17           0.034336910   -0.021016838    0.015038060
      3        1           0.009036293   -0.005728105    0.003561550
 -------------------------------------------------------------------
 Cartesian Forces:  Max     0.043373204 RMS     0.023372578

 GradGradGradGradGradGradGradGradGradGradGradGradGradGradGradGradGradGrad
 Berny optimization.
 FormGI is forming the generalized inverse of G from B-inverse, IUseBI=4.
 Internal  Forces:  Max     0.042587907 RMS     0.027349109
 Search for a saddle point.
 Step number   5 out of a maximum of  100
 All quantities printed in internal units (Hartrees-Bohrs-Radians)
 Swapping is turned off.
 Update second derivatives using D2CorX and points    2    3    4    5
 The second derivative matrix:
                          R1        R2        A1
           R1           0.10226
           R2          -0.00940   0.52376
           A1           0.04458   0.00285   0.18768
 ITU=  0  0  0  0
     Eigenvalues ---    0.08301   0.20670   0.52398
 Eigenvectors required to have negative eigenvalues:
                          R1        A1        R2
   1                   -0.91957   0.39231  -0.02216
 RFO step:  Lambda0=1.044453037D-01 Lambda=-2.65351421D-05.
 Linear search not attempted -- option 19 set.
 Iteration  1 RMS(Cart)=  0.00985727 RMS(Int)=  0.00001042
 Iteration  2 RMS(Cart)=  0.00000834 RMS(Int)=  0.00000000
 Iteration  3 RMS(Cart)=  0.00000000 RMS(Int)=  0.00000000
 ClnCor:  largest displacement from symmetrization is 1.80D-15 for atom     1.
 Variable       Old X    -DE/DX   Delta X   Delta X   Delta X     New X
                                 (Linear)    (Quad)   (Total)
    R1        3.59669  -0.04259   0.00000   0.01486   0.01486   3.61155
    R2        1.84500  -0.00104   0.00000   0.00029   0.00029   1.84529
    A1        1.57384   0.02072   0.00000   0.00598   0.00598   1.57981
         Item               Value     Threshold  Converged?
 Maximum Force            0.042588     0.000450     NO 
 RMS     Force            0.027349     0.000300     NO 
 Maximum Displacement     0.009724     0.001800     NO 
 RMS     Displacement     0.009861     0.001200     NO 
 Predicted change in Energy= 5.280442D-04
 GradGradGradGradGradGradGradGradGradGradGradGradGradGradGradGradGradGrad

                          Input orientation:                          
 ---------------------------------------------------------------------
 Center     Atomic      Atomic             Coordinates (Angstroms)
 Number     Number       Type             X           Y           Z
 ---------------------------------------------------------------------
      1          8           0       -2.254628    0.876005   -0.174183
      2         17           0       -3.787295    1.930541   -0.611655
      3          1           0       -2.279769    0.457631   -1.056143
 ---------------------------------------------------------------------
                    Distance matrix (angstroms):
                    1          2          3
     1  O    0.000000
     2  Cl   1.911150   0.000000
     3  H    0.976485   2.153988   0.000000
 Stoichiometry    ClHO
 Framework group  CS[SG(ClHO)]
 Deg. of freedom     3
 Full point group                 CS      NOp   2
 Largest Abelian subgroup         CS      NOp   2
 Largest concise Abelian subgroup C1      NOp   1
                         Standard orientation:                         
 ---------------------------------------------------------------------
 Center     Atomic      Atomic             Coordinates (Angstroms)
 Number     Number       Type             X           Y           Z
 ---------------------------------------------------------------------
      1          8           0        0.037556    1.249260   -0.000000
      2         17           0        0.037556   -0.661891    0.000000
      3          1           0       -0.938889    1.258063   -0.000000
 ---------------------------------------------------------------------
 Rotational constants (GHZ):         559.9167325          12.0765672          11.8215931
 Standard basis: SVP (5D, 7F)
 There are    29 symmetry adapted cartesian basis functions of A'  symmetry.
 There are    10 symmetry adapted cartesian basis functions of A"  symmetry.
 There are    27 symmetry adapted basis functions of A'  symmetry.
 There are    10 symmetry adapted basis functions of A"  symmetry.
    37 basis functions,    69 primitive gaussians,    39 cartesian basis functions
    13 alpha electrons       13 beta electrons
       nuclear repulsion energy        46.1687685869 Hartrees.
 NAtoms=    3 NActive=    3 NUniq=    3 SFac= 1.00D+00 NAtFMM=   60 NAOKFM=F Big=F
 Integral buffers will be    131072 words long.
 Raffenetti 2 integral format.
 Two-electron integral symmetry is turned on.
 Nuclear repulsion after empirical dispersion term =       46.1671576420 Hartrees.
 One-electron integrals computed using PRISM.
 NBasis=    37 RedAO= T EigKep=  4.37D-02  NBF=    27    10
 NBsUse=    37 1.00D-06 EigRej= -1.00D+00 NBFU=    27    10
 Initial guess from the checkpoint file:  "/tmp/Gau-10690.chk"
 B after Tr=    -0.000000    0.000000    0.000000
         Rot=    1.000000    0.000000   -0.000000    0.000232 Ang=   0.03 deg.
 Initial guess orbital symmetries:
       Occupied  (A') (A') (A') (A') (A') (A") (A') (A') (A') (A')
                 (A") (A') (A")
       Virtual   (A') (A') (A') (A') (A') (A') (A") (A') (A") (A')
                 (A") (A') (A') (A") (A') (A') (A") (A') (A') (A")
                 (A') (A') (A") (A')
 Keep R1 ints in memory in symmetry-blocked form, NReq=7153137.
 Requested convergence on RMS density matrix=1.00D-08 within 128 cycles.
 Requested convergence on MAX density matrix=1.00D-06.
 Requested convergence on             energy=1.00D-06.
 No special actions if energy rises.
 SCF Done:  E(RB3LYP) =  -535.748693198     A.U. after    9 cycles
            NFock=  9  Conv=0.22D-08     -V/T= 2.0029
 Calling FoFJK, ICntrl=      2127 FMM=F ISym2X=1 I1Cent= 0 IOpClX= 0 NMat=1 NMatS=1 NMatT=0.
 ***** Axes restored to original set *****
 -------------------------------------------------------------------
 Center     Atomic                   Forces (Hartrees/Bohr)
 Number     Number              X              Y              Z
 -------------------------------------------------------------------
      1        8          -0.043966887    0.027388468   -0.018297114
      2       17           0.035683144   -0.022205656    0.014895131
      3        1           0.008283743   -0.005182812    0.003401983
 -------------------------------------------------------------------
 Cartesian Forces:  Max     0.043966887 RMS     0.023835776

 GradGradGradGradGradGradGradGradGradGradGradGradGradGradGradGradGradGrad
 Berny optimization.
 FormGI is forming the generalized inverse of G from B-inverse, IUseBI=4.
 Internal  Forces:  Max     0.044278914 RMS     0.027823213
 Search for a saddle point.
 Step number   6 out of a maximum of  100
 All quantities printed in internal units (Hartrees-Bohrs-Radians)
 Swapping is turned off.
 Second derivative matrix not updated -- analytic derivatives used.
 The second derivative matrix:
                          R1        R2        A1
           R1           0.10226
           R2          -0.00940   0.52376
           A1           0.04458   0.00285   0.18768
 ITU=  0  0  0  0
     Eigenvalues ---    0.08301   0.20670   0.52398
 Eigenvectors required to have negative eigenvalues:
                          R1        A1        R2
   1                   -0.91957   0.39231  -0.02216
 RFO step:  Lambda0=1.051087178D-01 Lambda=-4.11221772D-08.
 Linear search not attempted -- option 19 set.
 Iteration  1 RMS(Cart)=  0.00038864 RMS(Int)=  0.00000002
 Iteration  2 RMS(Cart)=  0.00000001 RMS(Int)=  0.00000000
 ClnCor:  largest displacement from symmetrization is 1.62D-15 for atom     3.
 Variable       Old X    -DE/DX   Delta X   Delta X   Delta X     New X
                                 (Linear)    (Quad)   (Total)
    R1        3.61155  -0.04428   0.00000   0.00058   0.00058   3.61214
    R2        1.84529  -0.00106   0.00000   0.00002   0.00002   1.84530
    A1        1.57981   0.01899   0.00000   0.00024   0.00024   1.58005
         Item               Value     Threshold  Converged?
 Maximum Force            0.044279     0.000450     NO 
 RMS     Force            0.027823     0.000300     NO 
 Maximum Displacement     0.000383     0.001800     YES
 RMS     Displacement     0.000389     0.001200     YES
 Predicted change in Energy= 2.148017D-05
 GradGradGradGradGradGradGradGradGradGradGradGradGradGradGradGradGradGrad

                          Input orientation:                          
 ---------------------------------------------------------------------
 Center     Atomic      Atomic             Coordinates (Angstroms)
 Number     Number       Type             X           Y           Z
 ---------------------------------------------------------------------
      1          8           0       -2.254587    0.875956   -0.174215
      2         17           0       -3.787497    1.930726   -0.611620
      3          1           0       -2.279607    0.457495   -1.056147
 ---------------------------------------------------------------------
                    Distance matrix (angstroms):
                    1          2          3
     1  O    0.000000
     2  Cl   1.911460   0.000000
     3  H    0.976493   2.154472   0.000000
 Stoichiometry    ClHO
 Framework group  CS[SG(ClHO)]
 Deg. of freedom     3
 Full point group                 CS      NOp   2
 Largest Abelian subgroup         CS      NOp   2
 Largest concise Abelian subgroup C1      NOp   1
                         Standard orientation:                         
 ---------------------------------------------------------------------
 Center     Atomic      Atomic             Coordinates (Angstroms)
 Number     Number       Type             X           Y           Z
 ---------------------------------------------------------------------
      1          8           0        0.037556    1.249453    0.000000
      2         17           0        0.037556   -0.662007   -0.000000
      3          1           0       -0.938896    1.258486    0.000000
 ---------------------------------------------------------------------
 Rotational constants (GHZ):         559.9171039          12.0724840          11.8176806
 Standard basis: SVP (5D, 7F)
 There are    29 symmetry adapted cartesian basis functions of A'  symmetry.
 There are    10 symmetry adapted cartesian basis functions of A"  symmetry.
 There are    27 symmetry adapted basis functions of A'  symmetry.
 There are    10 symmetry adapted basis functions of A"  symmetry.
    37 basis functions,    69 primitive gaussians,    39 cartesian basis functions
    13 alpha electrons       13 beta electrons
       nuclear repulsion energy        46.1616937115 Hartrees.
 NAtoms=    3 NActive=    3 NUniq=    3 SFac= 1.00D+00 NAtFMM=   60 NAOKFM=F Big=F
 Integral buffers will be    131072 words long.
 Raffenetti 2 integral format.
 Two-electron integral symmetry is turned on.
 Nuclear repulsion after empirical dispersion term =       46.1600827996 Hartrees.
 One-electron integrals computed using PRISM.
 NBasis=    37 RedAO= T EigKep=  4.37D-02  NBF=    27    10
 NBsUse=    37 1.00D-06 EigRej= -1.00D+00 NBFU=    27    10
 Initial guess from the checkpoint file:  "/tmp/Gau-10690.chk"
 B after Tr=     0.000000   -0.000000   -0.000000
         Rot=    1.000000   -0.000000   -0.000000    0.000009 Ang=   0.00 deg.
 Initial guess orbital symmetries:
       Occupied  (A') (A') (A') (A') (A') (A") (A') (A') (A') (A')
                 (A") (A') (A")
       Virtual   (A') (A') (A') (A') (A') (A') (A") (A') (A") (A')
                 (A") (A') (A') (A") (A') (A') (A") (A') (A') (A")
                 (A') (A') (A") (A')
 Keep R1 ints in memory in symmetry-blocked form, NReq=7153137.
 Requested convergence on RMS density matrix=1.00D-08 within 128 cycles.
 Requested convergence on MAX density matrix=1.00D-06.
 Requested convergence on             energy=1.00D-06.
 No special actions if energy rises.
 SCF Done:  E(RB3LYP) =  -535.748671720     A.U. after    6 cycles
            NFock=  6  Conv=0.95D-08     -V/T= 2.0029
 Calling FoFJK, ICntrl=      2127 FMM=F ISym2X=1 I1Cent= 0 IOpClX= 0 NMat=1 NMatS=1 NMatT=0.
 ***** Axes restored to original set *****
 -------------------------------------------------------------------
 Center     Atomic                   Forces (Hartrees/Bohr)
 Number     Number              X              Y              Z
 -------------------------------------------------------------------
      1        8          -0.043989254    0.027411978   -0.018287194
      2       17           0.035734743   -0.022251404    0.014889288
      3        1           0.008254511   -0.005160574    0.003397907
 -------------------------------------------------------------------
 Cartesian Forces:  Max     0.043989254 RMS     0.023853708

 GradGradGradGradGradGradGradGradGradGradGradGradGradGradGradGradGradGrad
 Berny optimization.
 FormGI is forming the generalized inverse of G from B-inverse, IUseBI=4.
 Internal  Forces:  Max     0.044343782 RMS     0.027842456
 Search for a saddle point.
 Step number   7 out of a maximum of  100
 All quantities printed in internal units (Hartrees-Bohrs-Radians)
 Swapping is turned off.
 Update second derivatives using D2CorX and points    4    5    7
 The second derivative matrix:
                          R1        R2        A1
           R1           0.09725
           R2          -0.00964   0.52374
           A1           0.04132   0.00270   0.18556
 ITU=  0  0  0  0
     Eigenvalues ---    0.08071   0.20188   0.52397
 Eigenvectors required to have negative eigenvalues:
                          R1        A1        R2
   1                   -0.92995   0.36701  -0.02248
 RFO step:  Lambda0=1.032244082D-01 Lambda=-8.67701181D-06.
 Linear search not attempted -- option 19 set.
 Iteration  1 RMS(Cart)=  0.00581106 RMS(Int)=  0.00000395
 Iteration  2 RMS(Cart)=  0.00000305 RMS(Int)=  0.00000000
 Iteration  3 RMS(Cart)=  0.00000000 RMS(Int)=  0.00000000
 ClnCor:  largest displacement from symmetrization is 2.09D-15 for atom     1.
 Variable       Old X    -DE/DX   Delta X   Delta X   Delta X     New X
                                 (Linear)    (Quad)   (Total)
    R1        3.61214  -0.04434   0.00000   0.00850   0.00850   3.62064
    R2        1.84530  -0.00107   0.00000   0.00019   0.00019   1.84549
    A1        1.58005   0.01892   0.00000   0.00369   0.00369   1.58374
         Item               Value     Threshold  Converged?
 Maximum Force            0.044344     0.000450     NO 
 RMS     Force            0.027842     0.000300     NO 
 Maximum Displacement     0.005665     0.001800     NO 
 RMS     Displacement     0.005812     0.001200     NO 
 Predicted change in Energy= 3.134236D-04
 GradGradGradGradGradGradGradGradGradGradGradGradGradGradGradGradGradGrad

                          Input orientation:                          
 ---------------------------------------------------------------------
 Center     Atomic      Atomic             Coordinates (Angstroms)
 Number     Number       Type             X           Y           Z
 ---------------------------------------------------------------------
      1          8           0       -2.254055    0.875253   -0.174740
      2         17           0       -3.790495    1.933496   -0.611056
      3          1           0       -2.277141    0.455428   -1.056186
 ---------------------------------------------------------------------
                    Distance matrix (angstroms):
                    1          2          3
     1  O    0.000000
     2  Cl   1.915959   0.000000
     3  H    0.976593   2.161728   0.000000
 Stoichiometry    ClHO
 Framework group  CS[SG(ClHO)]
 Deg. of freedom     3
 Full point group                 CS      NOp   2
 Largest Abelian subgroup         CS      NOp   2
 Largest concise Abelian subgroup C1      NOp   1
                         Standard orientation:                         
 ---------------------------------------------------------------------
 Center     Atomic      Atomic             Coordinates (Angstroms)
 Number     Number       Type             X           Y           Z
 ---------------------------------------------------------------------
      1          8           0        0.037558    1.252256   -0.000000
      2         17           0        0.037558   -0.663703    0.000000
      3          1           0       -0.938953    1.264896   -0.000000
 ---------------------------------------------------------------------
 Rotational constants (GHZ):         559.9734551          12.0131636          11.7608568
 Standard basis: SVP (5D, 7F)
 There are    29 symmetry adapted cartesian basis functions of A'  symmetry.
 There are    10 symmetry adapted cartesian basis functions of A"  symmetry.
 There are    27 symmetry adapted basis functions of A'  symmetry.
 There are    10 symmetry adapted basis functions of A"  symmetry.
    37 basis functions,    69 primitive gaussians,    39 cartesian basis functions
    13 alpha electrons       13 beta electrons
       nuclear repulsion energy        46.0588208424 Hartrees.
 NAtoms=    3 NActive=    3 NUniq=    3 SFac= 1.00D+00 NAtFMM=   60 NAOKFM=F Big=F
 Integral buffers will be    131072 words long.
 Raffenetti 2 integral format.
 Two-electron integral symmetry is turned on.
 Nuclear repulsion after empirical dispersion term =       46.0572104255 Hartrees.
 One-electron integrals computed using PRISM.
 NBasis=    37 RedAO= T EigKep=  4.39D-02  NBF=    27    10
 NBsUse=    37 1.00D-06 EigRej= -1.00D+00 NBFU=    27    10
 Initial guess from the checkpoint file:  "/tmp/Gau-10690.chk"
 B after Tr=     0.000000   -0.000000    0.000000
         Rot=    1.000000    0.000000   -0.000000    0.000137 Ang=   0.02 deg.
 Initial guess orbital symmetries:
       Occupied  (A') (A') (A') (A') (A') (A") (A') (A') (A') (A')
                 (A") (A') (A")
       Virtual   (A') (A') (A') (A') (A') (A') (A") (A') (A") (A')
                 (A") (A') (A') (A") (A') (A') (A") (A') (A') (A")
                 (A') (A') (A") (A')
 Keep R1 ints in memory in symmetry-blocked form, NReq=7153137.
 Requested convergence on RMS density matrix=1.00D-08 within 128 cycles.
 Requested convergence on MAX density matrix=1.00D-06.
 Requested convergence on             energy=1.00D-06.
 No special actions if energy rises.
 SCF Done:  E(RB3LYP) =  -535.748358474     A.U. after    8 cycles
            NFock=  8  Conv=0.67D-08     -V/T= 2.0030
 Calling FoFJK, ICntrl=      2127 FMM=F ISym2X=1 I1Cent= 0 IOpClX= 0 NMat=1 NMatS=1 NMatT=0.
 ***** Axes restored to original set *****
 -------------------------------------------------------------------
 Center     Atomic                   Forces (Hartrees/Bohr)
 Number     Number              X              Y              Z
 -------------------------------------------------------------------
      1        8          -0.044295878    0.027758144   -0.018103254
      2       17           0.036483399   -0.022921533    0.014791705
      3        1           0.007812479   -0.004836611    0.003311548
 -------------------------------------------------------------------
 Cartesian Forces:  Max     0.044295878 RMS     0.024108530

 GradGradGradGradGradGradGradGradGradGradGradGradGradGradGradGradGradGrad
 Berny optimization.
 FormGI is forming the generalized inverse of G from B-inverse, IUseBI=4.
 Internal  Forces:  Max     0.045285635 RMS     0.028123376
 Search for a saddle point.
 Step number   8 out of a maximum of  100
 All quantities printed in internal units (Hartrees-Bohrs-Radians)
 Swapping is turned off.
 Update second derivatives using D2CorX and points    5    6    7    8
 The second derivative matrix:
                          R1        R2        A1
           R1           0.09402
           R2          -0.00979   0.52374
           A1           0.03909   0.00261   0.18418
 ITU=  0  0  0  0
     Eigenvalues ---    0.07921   0.19876   0.52397
 Eigenvectors required to have negative eigenvalues:
                          R1        A1        R2
   1                   -0.93671   0.34937  -0.02268
 RFO step:  Lambda0=1.023741229D-01 Lambda=-4.59838075D-06.
 Linear search not attempted -- option 19 set.
 Iteration  1 RMS(Cart)=  0.00431568 RMS(Int)=  0.00000231
 Iteration  2 RMS(Cart)=  0.00000174 RMS(Int)=  0.00000000
 Iteration  3 RMS(Cart)=  0.00000000 RMS(Int)=  0.00000000
 ClnCor:  largest displacement from symmetrization is 2.00D-15 for atom     3.
 Variable       Old X    -DE/DX   Delta X   Delta X   Delta X     New X
                                 (Linear)    (Quad)   (Total)
    R1        3.62064  -0.04529   0.00000   0.00619   0.00619   3.62682
    R2        1.84549  -0.00109   0.00000   0.00014   0.00014   1.84563
    A1        1.58374   0.01791   0.00000   0.00283   0.00283   1.58657
         Item               Value     Threshold  Converged?
 Maximum Force            0.045286     0.000450     NO 
 RMS     Force            0.028123     0.000300     NO 
 Maximum Displacement     0.004173     0.001800     NO 
 RMS     Displacement     0.004316     0.001200     NO 
 Predicted change in Energy= 2.328607D-04
 GradGradGradGradGradGradGradGradGradGradGradGradGradGradGradGradGradGrad

                          Input orientation:                          
 ---------------------------------------------------------------------
 Center     Atomic      Atomic             Coordinates (Angstroms)
 Number     Number       Type             X           Y           Z
 ---------------------------------------------------------------------
      1          8           0       -2.253699    0.874753   -0.175149
      2         17           0       -3.792704    1.935546   -0.610620
      3          1           0       -2.275289    0.453877   -1.056213
 ---------------------------------------------------------------------
                    Distance matrix (angstroms):
                    1          2          3
     1  O    0.000000
     2  Cl   1.919232   0.000000
     3  H    0.976667   2.167128   0.000000
 Stoichiometry    ClHO
 Framework group  CS[SG(ClHO)]
 Deg. of freedom     3
 Full point group                 CS      NOp   2
 Largest Abelian subgroup         CS      NOp   2
 Largest concise Abelian subgroup C1      NOp   1
                         Standard orientation:                         
 ---------------------------------------------------------------------
 Center     Atomic      Atomic             Coordinates (Angstroms)
 Number     Number       Type             X           Y           Z
 ---------------------------------------------------------------------
      1          8           0        0.037559    1.254290   -0.000000
      2         17           0        0.037559   -0.664942    0.000000
      3          1           0       -0.938986    1.269691   -0.000000
 ---------------------------------------------------------------------
 Rotational constants (GHZ):         560.0307581          11.9701725          11.7196746
 Standard basis: SVP (5D, 7F)
 There are    29 symmetry adapted cartesian basis functions of A'  symmetry.
 There are    10 symmetry adapted cartesian basis functions of A"  symmetry.
 There are    27 symmetry adapted basis functions of A'  symmetry.
 There are    10 symmetry adapted basis functions of A"  symmetry.
    37 basis functions,    69 primitive gaussians,    39 cartesian basis functions
    13 alpha electrons       13 beta electrons
       nuclear repulsion energy        45.9840631676 Hartrees.
 NAtoms=    3 NActive=    3 NUniq=    3 SFac= 1.00D+00 NAtFMM=   60 NAOKFM=F Big=F
 Integral buffers will be    131072 words long.
 Raffenetti 2 integral format.
 Two-electron integral symmetry is turned on.
 Nuclear repulsion after empirical dispersion term =       45.9824531210 Hartrees.
 One-electron integrals computed using PRISM.
 NBasis=    37 RedAO= T EigKep=  4.40D-02  NBF=    27    10
 NBsUse=    37 1.00D-06 EigRej= -1.00D+00 NBFU=    27    10
 Initial guess from the checkpoint file:  "/tmp/Gau-10690.chk"
 B after Tr=    -0.000000   -0.000000   -0.000000
         Rot=    1.000000    0.000000    0.000000    0.000103 Ang=   0.01 deg.
 Initial guess orbital symmetries:
       Occupied  (A') (A') (A') (A') (A') (A") (A') (A') (A') (A')
                 (A") (A') (A")
       Virtual   (A') (A') (A') (A') (A') (A') (A") (A') (A") (A')
                 (A") (A') (A') (A") (A') (A') (A") (A') (A') (A")
                 (A') (A') (A") (A')
 Keep R1 ints in memory in symmetry-blocked form, NReq=7153137.
 Requested convergence on RMS density matrix=1.00D-08 within 128 cycles.
 Requested convergence on MAX density matrix=1.00D-06.
 Requested convergence on             energy=1.00D-06.
 No special actions if energy rises.
 SCF Done:  E(RB3LYP) =  -535.748125673     A.U. after    8 cycles
            NFock=  8  Conv=0.49D-08     -V/T= 2.0030
 Calling FoFJK, ICntrl=      2127 FMM=F ISym2X=1 I1Cent= 0 IOpClX= 0 NMat=1 NMatS=1 NMatT=0.
 ***** Axes restored to original set *****
 -------------------------------------------------------------------
 Center     Atomic                   Forces (Hartrees/Bohr)
 Number     Number              X              Y              Z
 -------------------------------------------------------------------
      1        8          -0.044503855    0.028002432   -0.017959435
      2       17           0.037019400   -0.023405688    0.014713055
      3        1           0.007484455   -0.004596743    0.003246380
 -------------------------------------------------------------------
 Cartesian Forces:  Max     0.044503855 RMS     0.024289213

 GradGradGradGradGradGradGradGradGradGradGradGradGradGradGradGradGradGrad
 Berny optimization.
 FormGI is forming the generalized inverse of G from B-inverse, IUseBI=4.
 Internal  Forces:  Max     0.045960665 RMS     0.028331723
 Search for a saddle point.
 Step number   9 out of a maximum of  100
 All quantities printed in internal units (Hartrees-Bohrs-Radians)
 Swapping is turned off.
 Update second derivatives using D2CorX and points    6    7    8    9
 The second derivative matrix:
                          R1        R2        A1
           R1           0.09214
           R2          -0.00986   0.52374
           A1           0.03766   0.00257   0.18328
 ITU=  0  0  0  0
     Eigenvalues ---    0.07836   0.19682   0.52397
 Eigenvectors required to have negative eigenvalues:
                          R1        A1        R2
   1                   -0.94077   0.33829  -0.02278
 RFO step:  Lambda0=1.019710775D-01 Lambda=-1.79886234D-06.
 Linear search not attempted -- option 19 set.
 Iteration  1 RMS(Cart)=  0.00273265 RMS(Int)=  0.00000096
 Iteration  2 RMS(Cart)=  0.00000071 RMS(Int)=  0.00000000
 ClnCor:  largest displacement from symmetrization is 1.02D-15 for atom     2.
 Variable       Old X    -DE/DX   Delta X   Delta X   Delta X     New X
                                 (Linear)    (Quad)   (Total)
    R1        3.62682  -0.04596   0.00000   0.00387   0.00387   3.63069
    R2        1.84563  -0.00111   0.00000   0.00008   0.00008   1.84572
    A1        1.58657   0.01716   0.00000   0.00182   0.00182   1.58839
         Item               Value     Threshold  Converged?
 Maximum Force            0.045961     0.000450     NO 
 RMS     Force            0.028332     0.000300     NO 
 Maximum Displacement     0.002629     0.001800     NO 
 RMS     Displacement     0.002733     0.001200     NO 
 Predicted change in Energy= 1.477979D-04
 GradGradGradGradGradGradGradGradGradGradGradGradGradGradGradGradGradGrad

                          Input orientation:                          
 ---------------------------------------------------------------------
 Center     Atomic      Atomic             Coordinates (Angstroms)
 Number     Number       Type             X           Y           Z
 ---------------------------------------------------------------------
      1          8           0       -2.253489    0.874446   -0.175416
      2         17           0       -3.794095    1.936842   -0.610338
      3          1           0       -2.274108    0.452889   -1.056228
 ---------------------------------------------------------------------
                    Distance matrix (angstroms):
                    1          2          3
     1  O    0.000000
     2  Cl   1.921278   0.000000
     3  H    0.976711   2.170551   0.000000
 Stoichiometry    ClHO
 Framework group  CS[SG(ClHO)]
 Deg. of freedom     3
 Full point group                 CS      NOp   2
 Largest Abelian subgroup         CS      NOp   2
 Largest concise Abelian subgroup C1      NOp   1
                         Standard orientation:                         
 ---------------------------------------------------------------------
 Center     Atomic      Atomic             Coordinates (Angstroms)
 Number     Number       Type             X           Y           Z
 ---------------------------------------------------------------------
      1          8           0        0.037560    1.255560    0.000000
      2         17           0        0.037560   -0.665719   -0.000000
      3          1           0       -0.939000    1.272740    0.000000
 ---------------------------------------------------------------------
 Rotational constants (GHZ):         560.0757677          11.9433721          11.6940026
 Standard basis: SVP (5D, 7F)
 There are    29 symmetry adapted cartesian basis functions of A'  symmetry.
 There are    10 symmetry adapted cartesian basis functions of A"  symmetry.
 There are    27 symmetry adapted basis functions of A'  symmetry.
 There are    10 symmetry adapted basis functions of A"  symmetry.
    37 basis functions,    69 primitive gaussians,    39 cartesian basis functions
    13 alpha electrons       13 beta electrons
       nuclear repulsion energy        45.9373843468 Hartrees.
 NAtoms=    3 NActive=    3 NUniq=    3 SFac= 1.00D+00 NAtFMM=   60 NAOKFM=F Big=F
 Integral buffers will be    131072 words long.
 Raffenetti 2 integral format.
 Two-electron integral symmetry is turned on.
 Nuclear repulsion after empirical dispersion term =       45.9357745357 Hartrees.
 One-electron integrals computed using PRISM.
 NBasis=    37 RedAO= T EigKep=  4.41D-02  NBF=    27    10
 NBsUse=    37 1.00D-06 EigRej= -1.00D+00 NBFU=    27    10
 Initial guess from the checkpoint file:  "/tmp/Gau-10690.chk"
 B after Tr=     0.000000   -0.000000   -0.000000
         Rot=    1.000000   -0.000000    0.000000    0.000065 Ang=   0.01 deg.
 Initial guess orbital symmetries:
       Occupied  (A') (A') (A') (A') (A') (A") (A') (A') (A') (A')
                 (A") (A') (A")
       Virtual   (A') (A') (A') (A') (A') (A') (A") (A') (A") (A')
                 (A") (A') (A') (A") (A') (A') (A") (A') (A') (A")
                 (A') (A') (A") (A')
 Keep R1 ints in memory in symmetry-blocked form, NReq=7153137.
 Requested convergence on RMS density matrix=1.00D-08 within 128 cycles.
 Requested convergence on MAX density matrix=1.00D-06.
 Requested convergence on             energy=1.00D-06.
 No special actions if energy rises.
 SCF Done:  E(RB3LYP) =  -535.747977893     A.U. after    8 cycles
            NFock=  8  Conv=0.31D-08     -V/T= 2.0030
 Calling FoFJK, ICntrl=      2127 FMM=F ISym2X=1 I1Cent= 0 IOpClX= 0 NMat=1 NMatS=1 NMatT=0.
 ***** Axes restored to original set *****
 -------------------------------------------------------------------
 Center     Atomic                   Forces (Hartrees/Bohr)
 Number     Number              X              Y              Z
 -------------------------------------------------------------------
      1        8          -0.044627579    0.028152654   -0.017864045
      2       17           0.037350568   -0.023706646    0.014660800
      3        1           0.007277011   -0.004446007    0.003203245
 -------------------------------------------------------------------
 Cartesian Forces:  Max     0.044627579 RMS     0.024400156

 GradGradGradGradGradGradGradGradGradGradGradGradGradGradGradGradGradGrad
 Berny optimization.
 FormGI is forming the generalized inverse of G from B-inverse, IUseBI=4.
 Internal  Forces:  Max     0.046378047 RMS     0.028463712
 Search for a saddle point.
 Step number  10 out of a maximum of  100
 All quantities printed in internal units (Hartrees-Bohrs-Radians)
 Swapping is turned off.
 Update second derivatives using D2CorX and points    7    8    9   10
 The second derivative matrix:
                          R1        R2        A1
           R1           0.09086
           R2          -0.00989   0.52374
           A1           0.03670   0.00254   0.18265
 ITU=  0  0  0  0
     Eigenvalues ---    0.07776   0.19552   0.52397
 Eigenvectors required to have negative eigenvalues:
                          R1        A1        R2
   1                   -0.94347   0.33068  -0.02281
 RFO step:  Lambda0=1.016633641D-01 Lambda=-8.37822732D-07.
 Linear search not attempted -- option 19 set.
 Iteration  1 RMS(Cart)=  0.00188027 RMS(Int)=  0.00000046
 Iteration  2 RMS(Cart)=  0.00000034 RMS(Int)=  0.00000000
 ClnCor:  largest displacement from symmetrization is 1.26D-15 for atom     3.
 Variable       Old X    -DE/DX   Delta X   Delta X   Delta X     New X
                                 (Linear)    (Quad)   (Total)
    R1        3.63069  -0.04638   0.00000   0.00264   0.00264   3.63333
    R2        1.84572  -0.00112   0.00000   0.00005   0.00005   1.84577
    A1        1.58839   0.01668   0.00000   0.00127   0.00127   1.58966
         Item               Value     Threshold  Converged?
 Maximum Force            0.046378     0.000450     NO 
 RMS     Force            0.028464     0.000300     NO 
 Maximum Displacement     0.001803     0.001800     NO 
 RMS     Displacement     0.001880     0.001200     NO 
 Predicted change in Energy= 1.017979D-04
 GradGradGradGradGradGradGradGradGradGradGradGradGradGradGradGradGradGrad

                          Input orientation:                          
 ---------------------------------------------------------------------
 Center     Atomic      Atomic             Coordinates (Angstroms)
 Number     Number       Type             X           Y           Z
 ---------------------------------------------------------------------
      1          8           0       -2.253351    0.874237   -0.175605
      2         17           0       -3.795049    1.937732   -0.610140
      3          1           0       -2.273292    0.452208   -1.056237
 ---------------------------------------------------------------------
                    Distance matrix (angstroms):
                    1          2          3
     1  O    0.000000
     2  Cl   1.922674   0.000000
     3  H    0.976739   2.172908   0.000000
 Stoichiometry    ClHO
 Framework group  CS[SG(ClHO)]
 Deg. of freedom     3
 Full point group                 CS      NOp   2
 Largest Abelian subgroup         CS      NOp   2
 Largest concise Abelian subgroup C1      NOp   1
                         Standard orientation:                         
 ---------------------------------------------------------------------
 Center     Atomic      Atomic             Coordinates (Angstroms)
 Number     Number       Type             X           Y           Z
 ---------------------------------------------------------------------
      1          8           0        0.037560    1.256424    0.000000
      2         17           0        0.037560   -0.666249    0.000000
      3          1           0       -0.939006    1.274845   -0.000000
 ---------------------------------------------------------------------
 Rotational constants (GHZ):         560.1120191          11.9251222          11.6765220
[...]
           R1           0.08905
           R2          -0.00982   0.52374
           A1           0.03531   0.00257   0.18173
 ITU=  0  0  0  0
     Eigenvalues ---    0.07690   0.19365   0.52397
 Eigenvectors required to have negative eigenvalues:
                          R1        A1        R2
   1                   -0.94726   0.31965  -0.02265
 RFO step:  Lambda0=1.012787467D-01 Lambda= 0.00000000D+00.
 Linear search not attempted -- option 19 set.
 Iteration  1 RMS(Cart)=  0.00000001 RMS(Int)=  0.00000000
 ClnCor:  largest displacement from symmetrization is 2.22D-15 for atom     3.
 Variable       Old X    -DE/DX   Delta X   Delta X   Delta X     New X
                                 (Linear)    (Quad)   (Total)
    R1        3.63714  -0.04707   0.00000   0.00000   0.00000   3.63714
    R2        1.84583  -0.00113   0.00000   0.00000   0.00000   1.84583
    A1        1.59153   0.01588   0.00000  -0.00000  -0.00000   1.59153
         Item               Value     Threshold  Converged?
 Maximum Force            0.047067     0.000450     NO 
 RMS     Force            0.028687     0.000300     NO 
 Maximum Displacement     0.000000     0.001800     YES
 RMS     Displacement     0.000000     0.001200     YES
 Predicted change in Energy= 3.588717D-10
 GradGradGradGradGradGradGradGradGradGradGradGradGradGradGradGradGradGrad

                          Input orientation:                          
 ---------------------------------------------------------------------
 Center     Atomic      Atomic             Coordinates (Angstroms)
 Number     Number       Type             X           Y           Z
 ---------------------------------------------------------------------
      1          8           0       -2.253159    0.873936   -0.175889
      2         17           0       -3.796433    1.939027   -0.609849
      3          1           0       -2.272099    0.451214   -1.056244
 ---------------------------------------------------------------------
                    Distance matrix (angstroms):
                    1          2          3
     1  O    0.000000
     2  Cl   1.924691   0.000000
     3  H    0.976770   2.176339   0.000000
 Stoichiometry    ClHO
 Framework group  CS[SG(ClHO)]
 Deg. of freedom     3
 Full point group                 CS      NOp   2
 Largest Abelian subgroup         CS      NOp   2
 Largest concise Abelian subgroup C1      NOp   1
                         Standard orientation:                         
 ---------------------------------------------------------------------
 Center     Atomic      Atomic             Coordinates (Angstroms)
 Number     Number       Type             X           Y           Z
 ---------------------------------------------------------------------
      1          8           0        0.037560    1.257673    0.000000
      2         17           0        0.037560   -0.667018   -0.000000
      3          1           0       -0.939000    1.277919   -0.000000
 ---------------------------------------------------------------------
 Rotational constants (GHZ):         560.1820223          11.8987926          11.6513078
 Standard basis: SVP (5D, 7F)
 There are    29 symmetry adapted cartesian basis functions of A'  symmetry.
 There are    10 symmetry adapted cartesian basis functions of A"  symmetry.
 There are    27 symmetry adapted basis functions of A'  symmetry.
 There are    10 symmetry adapted basis functions of A"  symmetry.
    37 basis functions,    69 primitive gaussians,    39 cartesian basis functions
    13 alpha electrons       13 beta electrons
       nuclear repulsion energy        45.8596774378 Hartrees.
 NAtoms=    3 NActive=    3 NUniq=    3 SFac= 1.00D+00 NAtFMM=   60 NAOKFM=F Big=F
 Integral buffers will be    131072 words long.
 Raffenetti 2 integral format.
 Two-electron integral symmetry is turned on.
 Nuclear repulsion after empirical dispersion term =       45.8580680266 Hartrees.
 One-electron integrals computed using PRISM.
 NBasis=    37 RedAO= T EigKep=  4.43D-02  NBF=    27    10
 NBsUse=    37 1.00D-06 EigRej= -1.00D+00 NBFU=    27    10
 Initial guess from the checkpoint file:  "/tmp/Gau-10690.chk"
 B after Tr=    -0.000000   -0.000000   -0.000000
         Rot=    1.000000   -0.000000    0.000000   -0.000000 Ang=   0.00 deg.
 Initial guess orbital symmetries:
       Occupied  (A') (A') (A') (A') (A') (A") (A') (A') (A') (A')
                 (A") (A') (A")
       Virtual   (A') (A') (A') (A') (A') (A') (A") (A') (A") (A')
                 (A") (A') (A') (A") (A') (A') (A") (A') (A') (A")
                 (A') (A') (A") (A')
 Keep R1 ints in memory in symmetry-blocked form, NReq=7153137.
 Requested convergence on RMS density matrix=1.00D-08 within 128 cycles.
 Requested convergence on MAX density matrix=1.00D-06.
 Requested convergence on             energy=1.00D-06.
 No special actions if energy rises.
 SCF Done:  E(RB3LYP) =  -535.747727504     A.U. after    1 cycles
            NFock=  1  Conv=0.18D-09     -V/T= 2.0030
 Calling FoFJK, ICntrl=      2127 FMM=F ISym2X=1 I1Cent= 0 IOpClX= 0 NMat=1 NMatS=1 NMatT=0.
 ***** Axes restored to original set *****
 -------------------------------------------------------------------
 Center     Atomic                   Forces (Hartrees/Bohr)
 Number     Number              X              Y              Z
 -------------------------------------------------------------------
      1        8          -0.044823115    0.028404370   -0.017684573
      2       17           0.037896498   -0.024205998    0.014568187
      3        1           0.006926617   -0.004198371    0.003116385
 -------------------------------------------------------------------
 Cartesian Forces:  Max     0.044823115 RMS     0.024581581

 GradGradGradGradGradGradGradGradGradGradGradGradGradGradGradGradGradGrad
 Berny optimization.
 Internal  Forces:  Max     0.047066659 RMS     0.028686785
 Search for a saddle point.
 Step number  99 out of a maximum of  100
 All quantities printed in internal units (Hartrees-Bohrs-Radians)
 Swapping is turned off.
 Update second derivatives using D2CorX and points   99
 The second derivative matrix:
                          R1        R2        A1
           R1           0.08905
           R2          -0.00982   0.52374
           A1           0.03531   0.00257   0.18173
 ITU=  0  0  0  0
     Eigenvalues ---    0.07690   0.19365   0.52397
 Eigenvectors required to have negative eigenvalues:
                          R1        A1        R2
   1                   -0.94726   0.31965  -0.02265
 RFO step:  Lambda0=1.012787467D-01 Lambda= 0.00000000D+00.
 Linear search not attempted -- option 19 set.
 Iteration  1 RMS(Cart)=  0.00000000 RMS(Int)=  0.00000000
 ClnCor:  largest displacement from symmetrization is 5.55D-16 for atom     3.
 Variable       Old X    -DE/DX   Delta X   Delta X   Delta X     New X
                                 (Linear)    (Quad)   (Total)
    R1        3.63714  -0.04707   0.00000   0.00000   0.00000   3.63714
    R2        1.84583  -0.00113   0.00000  -0.00000  -0.00000   1.84583
    A1        1.59153   0.01588   0.00000   0.00000   0.00000   1.59153
         Item               Value     Threshold  Converged?
 Maximum Force            0.047067     0.000450     NO 
 RMS     Force            0.028687     0.000300     NO 
 Maximum Displacement     0.000000     0.001800     YES
 RMS     Displacement     0.000000     0.001200     YES
 Predicted change in Energy= 2.614418D-10
 GradGradGradGradGradGradGradGradGradGradGradGradGradGradGradGradGradGrad

                          Input orientation:                          
 ---------------------------------------------------------------------
 Center     Atomic      Atomic             Coordinates (Angstroms)
 Number     Number       Type             X           Y           Z
 ---------------------------------------------------------------------
      1          8           0       -2.253159    0.873936   -0.175889
      2         17           0       -3.796433    1.939027   -0.609849
      3          1           0       -2.272099    0.451214   -1.056244
 ---------------------------------------------------------------------
                    Distance matrix (angstroms):
                    1          2          3
     1  O    0.000000
     2  Cl   1.924691   0.000000
     3  H    0.976770   2.176339   0.000000
 Stoichiometry    ClHO
 Framework group  CS[SG(ClHO)]
 Deg. of freedom     3
 Full point group                 CS      NOp   2
 Largest Abelian subgroup         CS      NOp   2
 Largest concise Abelian subgroup C1      NOp   1
                         Standard orientation:                         
 ---------------------------------------------------------------------
 Center     Atomic      Atomic             Coordinates (Angstroms)
 Number     Number       Type             X           Y           Z
 ---------------------------------------------------------------------
      1          8           0        0.037560    1.257673   -0.000000
      2         17           0        0.037560   -0.667018    0.000000
      3          1           0       -0.939000    1.277919   -0.000000
 ---------------------------------------------------------------------
 Rotational constants (GHZ):         560.1820251          11.8987925          11.6513078
 Standard basis: SVP (5D, 7F)
 There are    29 symmetry adapted cartesian basis functions of A'  symmetry.
 There are    10 symmetry adapted cartesian basis functions of A"  symmetry.
 There are    27 symmetry adapted basis functions of A'  symmetry.
 There are    10 symmetry adapted basis functions of A"  symmetry.
    37 basis functions,    69 primitive gaussians,    39 cartesian basis functions
    13 alpha electrons       13 beta electrons
       nuclear repulsion energy        45.8596773838 Hartrees.
 NAtoms=    3 NActive=    3 NUniq=    3 SFac= 1.00D+00 NAtFMM=   60 NAOKFM=F Big=F
 Integral buffers will be    131072 words long.
 Raffenetti 2 integral format.
 Two-electron integral symmetry is turned on.
 Nuclear repulsion after empirical dispersion term =       45.8580679725 Hartrees.
 One-electron integrals computed using PRISM.
 NBasis=    37 RedAO= T EigKep=  4.43D-02  NBF=    27    10
 NBsUse=    37 1.00D-06 EigRej= -1.00D+00 NBFU=    27    10
 Initial guess from the checkpoint file:  "/tmp/Gau-10690.chk"
 B after Tr=     0.000000    0.000000    0.000000
         Rot=    1.000000    0.000000    0.000000    0.000000 Ang=   0.00 deg.
 Initial guess orbital symmetries:
       Occupied  (A') (A') (A') (A') (A') (A") (A') (A') (A') (A')
                 (A") (A') (A")
       Virtual   (A') (A') (A') (A') (A') (A') (A") (A') (A") (A')
                 (A") (A') (A') (A") (A') (A') (A") (A') (A') (A")
                 (A') (A') (A") (A')
 Keep R1 ints in memory in symmetry-blocked form, NReq=7153137.
 Requested convergence on RMS density matrix=1.00D-08 within 128 cycles.
 Requested convergence on MAX density matrix=1.00D-06.
 Requested convergence on             energy=1.00D-06.
 No special actions if energy rises.
 SCF Done:  E(RB3LYP) =  -535.747727504     A.U. after    1 cycles
            NFock=  1  Conv=0.27D-09     -V/T= 2.0030
 Calling FoFJK, ICntrl=      2127 FMM=F ISym2X=1 I1Cent= 0 IOpClX= 0 NMat=1 NMatS=1 NMatT=0.
 ***** Axes restored to original set *****
 -------------------------------------------------------------------
 Center     Atomic                   Forces (Hartrees/Bohr)
 Number     Number              X              Y              Z
 -------------------------------------------------------------------
      1        8          -0.044823115    0.028404372   -0.017684568
      2       17           0.037896499   -0.024205999    0.014568188
      3        1           0.006926616   -0.004198373    0.003116381
 -------------------------------------------------------------------
 Cartesian Forces:  Max     0.044823115 RMS     0.024581581

 GradGradGradGradGradGradGradGradGradGradGradGradGradGradGradGradGradGrad
 Berny optimization.
 Internal  Forces:  Max     0.047066661 RMS     0.028686785
 Search for a saddle point.
 Step number 100 out of a maximum of  100
 All quantities printed in internal units (Hartrees-Bohrs-Radians)
 Swapping is turned off.
 Update second derivatives using D2CorX and points  100
 The second derivative matrix:
                          R1        R2        A1
           R1           0.08905
           R2          -0.00982   0.52374
           A1           0.03531   0.00257   0.18173
 ITU=  0  0  0  0
     Eigenvalues ---    0.07690   0.19365   0.52397
 Eigenvectors required to have negative eigenvalues:
                          R1        A1        R2
   1                   -0.94726   0.31965  -0.02265
 RFO step:  Lambda0=1.012787474D-01 Lambda= 0.00000000D+00.
 Linear search not attempted -- option 19 set.
 Iteration  1 RMS(Cart)=  0.00000000 RMS(Int)=  0.00000000
 ClnCor:  largest displacement from symmetrization is 4.06D-15 for atom     3.
 Variable       Old X    -DE/DX   Delta X   Delta X   Delta X     New X
                                 (Linear)    (Quad)   (Total)
    R1        3.63714  -0.04707   0.00000   0.00000   0.00000   3.63714
    R2        1.84583  -0.00113   0.00000   0.00000   0.00000   1.84583
    A1        1.59153   0.01588   0.00000  -0.00000  -0.00000   1.59153
         Item               Value     Threshold  Converged?
 Maximum Force            0.047067     0.000450     NO 
 RMS     Force            0.028687     0.000300     NO 
 Maximum Displacement     0.000000     0.001800     YES
 RMS     Displacement     0.000000     0.001200     YES
 Predicted change in Energy= 2.654692D-10
 Optimization stopped.
    -- Number of steps exceeded,  NStep= 100
    -- Flag reset to prevent archiving.
                           ----------------------------
                           ! Non-Optimized Parameters !
                           ! (Angstroms and Degrees)  !
 --------------------------                            --------------------------
 ! Name  Definition              Value          Derivative Info.                !
 --------------------------------------------------------------------------------
 ! R1    R(1,2)                  1.9247         -DE/DX =   -0.0471              !
 ! R2    R(1,3)                  0.9768         -DE/DX =   -0.0011              !
 ! A1    A(2,1,3)               91.1877         -DE/DX =    0.0159              !
 --------------------------------------------------------------------------------
 GradGradGradGradGradGradGradGradGradGradGradGradGradGradGradGradGradGrad

                          Input orientation:                          
 ---------------------------------------------------------------------
 Center     Atomic      Atomic             Coordinates (Angstroms)
 Number     Number       Type             X           Y           Z
 ---------------------------------------------------------------------
      1          8           0       -2.253159    0.873936   -0.175889
      2         17           0       -3.796433    1.939027   -0.609849
      3          1           0       -2.272099    0.451214   -1.056244
 ---------------------------------------------------------------------
                    Distance matrix (angstroms):
                    1          2          3
     1  O    0.000000
     2  Cl   1.924691   0.000000
     3  H    0.976770   2.176339   0.000000
 Stoichiometry    ClHO
 Framework group  CS[SG(ClHO)]
 Deg. of freedom     3
 Full point group                 CS      NOp   2
 Largest Abelian subgroup         CS      NOp   2
 Largest concise Abelian subgroup C1      NOp   1
                         Standard orientation:                         
 ---------------------------------------------------------------------
 Center     Atomic      Atomic             Coordinates (Angstroms)
 Number     Number       Type             X           Y           Z
 ---------------------------------------------------------------------
      1          8           0        0.037560    1.257673   -0.000000
      2         17           0        0.037560   -0.667018    0.000000
      3          1           0       -0.939000    1.277919    0.000000
 ---------------------------------------------------------------------
 Rotational constants (GHZ):         560.1820251          11.8987925          11.6513078

 **********************************************************************

            Population analysis using the SCF density.

 **********************************************************************

 Orbital symmetries:
       Occupied  (A') (A') (A') (A') (A') (A") (A') (A') (A') (A')
                 (A") (A') (A")
       Virtual   (A') (A') (A') (A') (A') (A') (A") (A') (A") (A')
                 (A") (A') (A') (A") (A') (A') (A") (A') (A') (A")
                 (A') (A') (A") (A')
 The electronic state is 1-A'.
 Alpha  occ. eigenvalues -- -101.54631 -19.21343  -9.49605  -7.26938  -7.25346
 Alpha  occ. eigenvalues --   -7.25316  -1.01270  -0.79989  -0.49386  -0.42622
 Alpha  occ. eigenvalues --   -0.37757  -0.32627  -0.29899
 Alpha virt. eigenvalues --   -0.13662   0.05471   0.46665   0.56031   0.68002
 Alpha virt. eigenvalues --    0.69603   0.69706   0.76014   0.76182   0.83304
 Alpha virt. eigenvalues --    0.83721   0.92071   0.98778   0.98997   1.05702
 Alpha virt. eigenvalues --    1.38937   1.39964   1.48518   2.14831   2.59292
 Alpha virt. eigenvalues --    2.74182   2.90749   2.92346   3.63792
          Condensed to atoms (all electrons):
               1          2          3
     1  O    7.815212   0.146020   0.290629
     2  Cl   0.146020  16.828230  -0.013841
     3  H    0.290629  -0.013841   0.510941
 Mulliken charges:
               1
     1  O   -0.251861
     2  Cl   0.039590
     3  H    0.212271
 Sum of Mulliken charges =  -0.00000
 Mulliken charges with hydrogens summed into heavy atoms:
               1
     1  O   -0.039590
     2  Cl   0.039590
 Electronic spatial extent (au):  <R**2>=            119.8265
 Charge=              0.0000 electrons
 Dipole moment (field-independent basis, Debye):
    X=             -1.6608    Y=             -0.1028    Z=             -0.0000  Tot=              1.6640
 Quadrupole moment (field-independent basis, Debye-Ang):
   XX=            -16.5692   YY=            -16.5132   ZZ=            -18.7312
   XY=             -2.3841   XZ=             -0.0000   YZ=              0.0000
 Traceless Quadrupole moment (field-independent basis, Debye-Ang):
   XX=              0.7020   YY=              0.7580   ZZ=             -1.4600
   XY=             -2.3841   XZ=             -0.0000   YZ=              0.0000
 Octapole moment (field-independent basis, Debye-Ang**2):
  XXX=             -2.2312  YYY=              0.0839  ZZZ=             -0.0000  XYY=             -3.3293
  XXY=              3.2718  XXZ=              0.0000  XZZ=             -0.2398  YZZ=              0.5325
  YYZ=              0.0000  XYZ=             -0.0000
 Hexadecapole moment (field-independent basis, Debye-Ang**3):
 XXXX=            -16.9643 YYYY=            -93.0271 ZZZZ=            -16.7719 XXXY=             -0.3590
 XXXZ=             -0.0000 YYYX=             -2.5395 YYYZ=              0.0000 ZZZX=             -0.0000
 ZZZY=              0.0000 XXYY=            -17.5146 XXZZ=             -5.9404 YYZZ=            -20.6636
 XXYZ=              0.0000 YYXZ=             -0.0000 ZZXY=              0.5324
 N-N= 4.585806797255D+01 E-N=-1.364520295630D+03  KE= 5.341595830930D+02
 Symmetry A'   KE= 4.834111007842D+02
 Symmetry A"   KE= 5.074848230879D+01


 IT MATTERS NOT HOW DEEP YOU PLOW,
 BUT HOW LONG YOU STAY IN THE FURROW.
 Error termination request processed by link 9999.
 Error termination via Lnk1e in /share/apps/g16.a03/g16/l9999.exe at Thu Mar  6 16:42:02 2025.
 Job cpu time:       0 days  0 hours 13 minutes 12.9 seconds.
 Elapsed time:       0 days  0 hours  1 minutes 43.8 seconds.
 File lengths (MBytes):  RWF=      6 Int=      0 D2E=      0 Chk=      1 Scr=      1
