 Entering Gaussian System, Link 0=g16
 Input=ts.gjf
 Output=ts.log
 Initial command:
 /share/apps/g16.a03/g16/l1.exe "/tmp/Gau-22053.inp" -scrdir="/tmp/"
 Entering Link 1 = /share/apps/g16.a03/g16/l1.exe PID=     22055.
  
 Copyright (c) 1988,1990,1992,1993,1995,1998,2003,2009,2016,
            Gaussian, Inc.  All Rights Reserved.
  
 This is part of the Gaussian(R) 16 program.  It is based on
 the Gaussian(R) 09 system (copyright 2009, Gaussian, Inc.),
 the Gaussian(R) 03 system (copyright 2003, Gaussian, Inc.),
 the Gaussian(R) 98 system (copyright 1998, Gaussian, Inc.),
 the Gaussian(R) 94 system (copyright 1995, Gaussian, Inc.),
 the Gaussian 92(TM) system (copyright 1992, Gaussian, Inc.),
 the Gaussian 90(TM) system (copyright 1990, Gaussian, Inc.),
 the Gaussian 88(TM) system (copyright 1988, Gaussian, Inc.),
 the Gaussian 86(TM) system (copyright 1986, Carnegie Mellon
 University), and the Gaussian 82(TM) system (copyright 1983,
 Carnegie Mellon University). Gaussian is a federally registered
 trademark of Gaussian, Inc.
  
 This software contains proprietary and confidential information,
 including trade secrets, belonging to Gaussian, Inc.
  
 This software is provided under written license and may be
 used, copied, transmitted, or stored only in accord with that
 written license.
  
 The following legend is applicable only to US Government
 contracts under FAR:
  
                    RESTRICTED RIGHTS LEGEND
  
 Use, reproduction and disclosure by the US Government is
 subject to restrictions as set forth in subparagraphs (a)
 and (c) of the Commercial Computer Software - Restricted
 Rights clause in FAR 52.227-19.
  
 Gaussian, Inc.
 340 Quinnipiac St., Bldg. 40, Wallingford CT 06492
  
  
 ---------------------------------------------------------------
 Warning -- This program may not be used in any manner that
 competes with the business of Gaussian, Inc. or will provide
 assistance to any competitor of Gaussian, Inc.  The licensee
 of this program is prohibited from giving any competitor of
 Gaussian, Inc. access to this program.  By using this program,
 the user acknowledges that Gaussian, Inc. is engaged in the
 business of creating and licensing software in the field of
 computational chemistry and represents and warrants to the
 licensee that it is not a competitor of Gaussian, Inc. and that
 it will not use this program in any manner prohibited above.
 ---------------------------------------------------------------
  

 Cite this work as:
 Gaussian 16, Revision A.03,
 M. J. Frisch, G. W. Trucks, H. B. Schlegel, G. E. Scuseria, 
 M. A. Robb, J. R. Cheeseman, G. Scalmani, V. Barone, 
 G. A. Petersson, H. Nakatsuji, X. Li, M. Caricato, A. V. Marenich, 
 J. Bloino, B. G. Janesko, R. Gomperts, B. Mennucci, H. P. Hratchian, 
 J. V. Ortiz, A. F. Izmaylov, J. L. Sonnenberg, D. Williams-Young, 
 F. Ding, F. Lipparini, F. Egidi, J. Goings, B. Peng, A. Petrone, 
 T. Henderson, D. Ranasinghe, V. G. Zakrzewski, J. Gao, N. Rega, 
 G. Zheng, W. Liang, M. Hada, M. Ehara, K. Toyota, R. Fukuda, 
 J. Hasegawa, M. Ishida, T. Nakajima, Y. Honda, O. Kitao, H. Nakai, 
 T. Vreven, K. Throssell, J. A. Montgomery, Jr., J. E. Peralta, 
 F. Ogliaro, M. J. Bearpark, J. J. Heyd, E. N. Brothers, K. N. Kudin, 
 V. N. Staroverov, T. A. Keith, R. Kobayashi, J. Normand, 
 K. Raghavachari, A. P. Rendell, J. C. Burant, S. S. Iyengar, 
 J. Tomasi, M. Cossi, J. M. Millam, M. Klene, C. Adamo, R. Cammi, 
 J. W. Ochterski, R. L. Martin, K. Morokuma, O. Farkas, 
 J. B. Foresman, and D. J. Fox, Gaussian, Inc., Wallingford CT, 2016.
 
 ******************************************
 Gaussian 16:  EM64L-G16RevA.03 25-Dec-2016
                 6-Mar-2025 
 ******************************************
 %nproc=8
 Will use up to    8 processors via shared memory.
 %mem=4000MB
 --------------------------------------------------------------------
 #opt=(noeigen,calcfc,ts,recalc=5,maxcyc=200) freq B3LYP/SVP em=GD3BJ
 --------------------------------------------------------------------
 1/5=1,6=200,10=4,11=1,18=20,26=3,38=1,71=5/1,3;
 2/9=110,12=2,17=6,18=5,40=1/2;
 3/5=18,7=101,11=2,25=1,30=1,71=2,74=-5,124=41,140=1/1,2,3;
 4//1;
 5/5=2,38=5/2;
 8/6=4,10=90,11=11/1;
 11/6=1,8=1,9=11,15=111,16=1/1,2,10;
 10/6=1,13=1/2;
 6/7=2,8=2,9=2,10=2,28=1/1;
 7/10=1,18=20,25=1/1,2,3,16;
 1/5=1,6=200,10=4,11=1,18=20,26=3,71=5/3(2);
 2/9=110/2;
 99//99;
 2/9=110/2;
 3/5=18,7=101,11=2,25=1,30=1,71=1,74=-5,124=41/1,2,3;
 4/5=5,16=3,69=1/1;
 5/5=2,38=5/2;
 7//1,2,3,16;
 1/5=1,6=200,11=1,18=20,26=3,71=5/3(-5);
 2/9=110/2;
 6/7=2,8=2,9=2,10=2,19=2,28=1/1;
 99/9=1/99;
 -----------
 ts-1436.gjf
 -----------
 Symbolic Z-matrix:
 Charge =  0 Multiplicity = 1
 O                    -1.63087  -5.04285  -5.17758 
 Cl                   -0.12055  -3.82323  -5.67491 
 H                    -2.17413  -4.87347  -5.96142 
 

 GradGradGradGradGradGradGradGradGradGradGradGradGradGradGradGradGradGrad
 Berny optimization.
 Initialization pass.
                           ----------------------------
                           !    Initial Parameters    !
                           ! (Angstroms and Degrees)  !
 --------------------------                            --------------------------
 ! Name  Definition              Value          Derivative Info.                !
 --------------------------------------------------------------------------------
 ! R1    R(1,2)                  2.004          calculate D2E/DX2 analytically  !
 ! R2    R(1,3)                  0.9686         calculate D2E/DX2 analytically  !
 ! A1    A(2,1,3)               96.6292         calculate D2E/DX2 analytically  !
 --------------------------------------------------------------------------------
 Trust Radius=3.00D-01 FncErr=1.00D-07 GrdErr=1.00D-06 EigMax=2.50D+02 EigMin=1.00D-04
 Number of steps in this run=    100 maximum allowed number of steps=    100.
 Search for a saddle point of order  1.
 GradGradGradGradGradGradGradGradGradGradGradGradGradGradGradGradGradGrad

                          Input orientation:                          
 ---------------------------------------------------------------------
 Center     Atomic      Atomic             Coordinates (Angstroms)
 Number     Number       Type             X           Y           Z
 ---------------------------------------------------------------------
      1          8           0       -1.630866   -5.042852   -5.177578
      2         17           0       -0.120546   -3.823234   -5.674907
      3          1           0       -2.174126   -4.873467   -5.961415
 ---------------------------------------------------------------------
                    Distance matrix (angstroms):
                    1          2          3
     1  O    0.000000
     2  Cl   2.003964   0.000000
     3  H    0.968619   2.324277   0.000000
 Stoichiometry    ClHO
 Framework group  CS[SG(ClHO)]
 Deg. of freedom     3
 Full point group                 CS      NOp   2
 Largest Abelian subgroup         CS      NOp   2
 Largest concise Abelian subgroup C1      NOp   1
                         Standard orientation:                         
 ---------------------------------------------------------------------
 Center     Atomic      Atomic             Coordinates (Angstroms)
 Number     Number       Type             X           Y           Z
 ---------------------------------------------------------------------
      1          8           0        0.037006    1.305983    0.000000
      2         17           0        0.037006   -0.697981    0.000000
      3          1           0       -0.925138    1.417804    0.000000
 ---------------------------------------------------------------------
 Rotational constants (GHZ):         580.3398227          10.9146678          10.7131810
 Standard basis: SVP (5D, 7F)
 There are    29 symmetry adapted cartesian basis functions of A'  symmetry.
 There are    10 symmetry adapted cartesian basis functions of A"  symmetry.
 There are    27 symmetry adapted basis functions of A'  symmetry.
 There are    10 symmetry adapted basis functions of A"  symmetry.
    37 basis functions,    69 primitive gaussians,    39 cartesian basis functions
    13 alpha electrons       13 beta electrons
       nuclear repulsion energy        44.1539003281 Hartrees.
 NAtoms=    3 NActive=    3 NUniq=    3 SFac= 1.00D+00 NAtFMM=   60 NAOKFM=F Big=F
 Integral buffers will be    131072 words long.
 Raffenetti 2 integral format.
 Two-electron integral symmetry is turned on.
 Nuclear repulsion after empirical dispersion term =       44.1523012467 Hartrees.
 One-electron integrals computed using PRISM.
 NBasis=    37 RedAO= T EigKep=  4.71D-02  NBF=    27    10
 NBsUse=    37 1.00D-06 EigRej= -1.00D+00 NBFU=    27    10
 ExpMin= 1.22D-01 ExpMax= 1.04D+04 ExpMxC= 1.57D+03 IAcc=3 IRadAn=         5 AccDes= 0.00D+00
 Harris functional with IExCor=  402 and IRadAn=       5 diagonalized for initial guess.
 HarFok:  IExCor=  402 AccDes= 0.00D+00 IRadAn=         5 IDoV= 1 UseB2=F ITyADJ=14
 ICtDFT=  3500011 ScaDFX=  1.000000  1.000000  1.000000  1.000000
 FoFCou: FMM=F IPFlag=           0 FMFlag=      100000 FMFlg1=           0
         NFxFlg=           0 DoJE=T BraDBF=F KetDBF=T FulRan=T
         wScrn=  0.000000 ICntrl=       500 IOpCl=  0 I1Cent=   200000004 NGrid=           0
         NMat0=    1 NMatS0=      1 NMatT0=    0 NMatD0=    1 NMtDS0=    0 NMtDT0=    0
 Petite list used in FoFCou.
 Initial guess orbital symmetries:
       Occupied  (A') (A') (A') (A') (A') (A") (A') (A') (A') (A')
                 (A") (A') (A")
       Virtual   (A') (A') (A') (A') (A') (A") (A') (A') (A") (A')
                 (A") (A') (A") (A') (A') (A') (A") (A') (A') (A")
                 (A') (A") (A') (A')
 The electronic state of the initial guess is 1-A'.
 Keep R1 ints in memory in symmetry-blocked form, NReq=7153137.
 Requested convergence on RMS density matrix=1.00D-08 within 128 cycles.
 Requested convergence on MAX density matrix=1.00D-06.
 Requested convergence on             energy=1.00D-06.
 No special actions if energy rises.
 Integral accuracy reduced to 1.0D-05 until final iterations.
 Initial convergence to 1.0D-05 achieved.  Increase integral accuracy.
 SCF Done:  E(RB3LYP) =  -535.740105543     A.U. after   13 cycles
            NFock= 13  Conv=0.24D-08     -V/T= 2.0031
 DoSCS=F DFT=T ScalE2(SS,OS)=  1.000000  1.000000
 Range of M.O.s used for correlation:     1    37
 NBasis=    37 NAE=    13 NBE=    13 NFC=     0 NFV=     0
 NROrb=     37 NOA=    13 NOB=    13 NVA=    24 NVB=    24
 Symmetrizing basis deriv contribution to polar:
 IMax=3 JMax=2 DiffMx= 0.00D+00
 G2DrvN: will do     4 centers at a time, making    1 passes.
 Calling FoFCou, ICntrl=  3107 FMM=F I1Cent=   0 AccDes= 0.00D+00.
 End of G2Drv F.D. properties file   721 does not exist.
 End of G2Drv F.D. properties file   722 does not exist.
 End of G2Drv F.D. properties file   788 does not exist.
          IDoAtm=111
          Differentiating once with respect to nuclear coordinates.
 Keep R1 ints in memory in symmetry-blocked form, NReq=7127942.
          There are    12 degrees of freedom in the 1st order CPHF.  IDoFFX=6 NUNeed=     0.
      6 vectors produced by pass  0 Test12= 2.60D-15 8.33D-09 XBig12= 7.41D-02 1.72D-01.
 AX will form     6 AO Fock derivatives at one time.
      6 vectors produced by pass  1 Test12= 2.60D-15 8.33D-09 XBig12= 6.10D-02 1.10D-01.
      6 vectors produced by pass  2 Test12= 2.60D-15 8.33D-09 XBig12= 1.12D-03 1.30D-02.
      6 vectors produced by pass  3 Test12= 2.60D-15 8.33D-09 XBig12= 2.28D-05 1.70D-03.
      6 vectors produced by pass  4 Test12= 2.60D-15 8.33D-09 XBig12= 1.73D-07 1.40D-04.
      6 vectors produced by pass  5 Test12= 2.60D-15 8.33D-09 XBig12= 6.18D-10 7.78D-06.
      3 vectors produced by pass  6 Test12= 2.60D-15 8.33D-09 XBig12= 6.28D-13 2.64D-07.
 InvSVY:  IOpt=1 It=  1 EMax= 2.22D-16
 Solved reduced A of dimension    39 with     6 vectors.
 End of Minotr F.D. properties file   721 does not exist.
 End of Minotr F.D. properties file   722 does not exist.
 End of Minotr F.D. properties file   788 does not exist.

 **********************************************************************

            Population analysis using the SCF density.

 **********************************************************************

 Orbital symmetries:
       Occupied  (A') (A') (A') (A') (A') (A") (A') (A') (A') (A')
                 (A") (A') (A")
       Virtual   (A') (A') (A') (A') (A') (A") (A') (A') (A") (A')
                 (A") (A') (A') (A") (A') (A') (A") (A') (A') (A")
                 (A') (A') (A") (A')
 The electronic state is 1-A'.
 Alpha  occ. eigenvalues -- -101.54755 -19.21469  -9.49642  -7.26988  -7.25386
 Alpha  occ. eigenvalues --   -7.25362  -1.00246  -0.80284  -0.49081  -0.41438
 Alpha  occ. eigenvalues --   -0.36966  -0.32743  -0.30367
 Alpha virt. eigenvalues --   -0.15674   0.05620   0.46531   0.56441   0.67618
 Alpha virt. eigenvalues --    0.70169   0.70338   0.76309   0.76377   0.83190
 Alpha virt. eigenvalues --    0.83588   0.92597   0.97838   0.98205   1.04497
 Alpha virt. eigenvalues --    1.34170   1.40490   1.50703   2.16352   2.58963
 Alpha virt. eigenvalues --    2.70644   2.91290   2.93313   3.64682
          Condensed to atoms (all electrons):
               1          2          3
     1  O    7.799811   0.152391   0.289639
     2  Cl   0.152391  16.822838  -0.009274
     3  H    0.289639  -0.009274   0.511837
 Mulliken charges:
               1
     1  O   -0.241842
     2  Cl   0.034045
     3  H    0.207797
 Sum of Mulliken charges =   0.00000
 Mulliken charges with hydrogens summed into heavy atoms:
               1
     1  O   -0.034045
     2  Cl   0.034045
 APT charges:
               1
     1  O   -0.455047
     2  Cl   0.046347
     3  H    0.408700
 Sum of APT charges =   0.00000
 APT charges with hydrogens summed into heavy atoms:
               1
     1  O   -0.046347
     2  Cl   0.046347
 Electronic spatial extent (au):  <R**2>=            126.8108
 Charge=              0.0000 electrons
 Dipole moment (field-independent basis, Debye):
    X=             -1.6645    Y=              0.0305    Z=              0.0000  Tot=              1.6648
 Quadrupole moment (field-independent basis, Debye-Ang):
   XX=            -16.6632   YY=            -15.8940   ZZ=            -18.7584
   XY=             -2.6426   XZ=              0.0000   YZ=             -0.0000
 Traceless Quadrupole moment (field-independent basis, Debye-Ang):
   XX=              0.4420   YY=              1.2112   ZZ=             -1.6532
   XY=             -2.6426   XZ=              0.0000   YZ=             -0.0000
 Octapole moment (field-independent basis, Debye-Ang**2):
  XXX=             -2.1721  YYY=              1.2986  ZZZ=              0.0000  XYY=             -3.9286
  XXY=              3.4540  XXZ=              0.0000  XZZ=             -0.2451  YZZ=              0.5431
  YYZ=              0.0000  XYZ=             -0.0000
 Hexadecapole moment (field-independent basis, Debye-Ang**3):
 XXXX=            -17.0389 YYYY=            -97.9081 ZZZZ=            -16.8015 XXXY=             -0.3853
 XXXZ=              0.0000 YYYX=             -3.8229 YYYZ=             -0.0000 ZZZX=              0.0000
 ZZZY=             -0.0000 XXYY=            -18.2684 XXZZ=             -5.9385 YYZZ=            -22.0235
 XXYZ=             -0.0000 YYXZ=              0.0000 ZZXY=              0.5725
 N-N= 4.415230124670D+01 E-N=-1.361077975233D+03  KE= 5.340954825346D+02
 Symmetry A'   KE= 4.833497996107D+02
 Symmetry A"   KE= 5.074568292391D+01
  Exact polarizability:   0.000   0.000   0.000   0.000   0.000   0.000
 Approx polarizability:  14.455  -1.066  64.183  -0.000   0.000   9.799
 Calling FoFJK, ICntrl=    100147 FMM=F ISym2X=1 I1Cent= 0 IOpClX= 0 NMat=1 NMatS=1 NMatT=0.
 ***** Axes restored to original set *****
 -------------------------------------------------------------------
 Center     Atomic                   Forces (Hartrees/Bohr)
 Number     Number              X              Y              Z
 -------------------------------------------------------------------
      1        8           0.048735710    0.033525827   -0.006818865
      2       17          -0.045612166   -0.036214951    0.014041226
      3        1          -0.003123544    0.002689124   -0.007222361
 -------------------------------------------------------------------
 Cartesian Forces:  Max     0.048735710 RMS     0.028292021
 FormGI is forming the generalized inverse of G from B-inverse, IUseBI=4.

 GradGradGradGradGradGradGradGradGradGradGradGradGradGradGradGradGradGrad
 Berny optimization.
 Internal  Forces:  Max     0.059901802 RMS     0.034961796
 Search for a saddle point.
 Step number   1 out of a maximum of  100
 All quantities printed in internal units (Hartrees-Bohrs-Radians)
 Swapping is turned off.
 Second derivative matrix not updated -- analytic derivatives used.
 The second derivative matrix:
                          R1        R2        A1
           R1           0.04485
           R2          -0.00723   0.52810
           A1           0.02483  -0.00240   0.14150
 ITU=  0
     Eigenvalues ---    0.03876   0.14746   0.52823
 Eigenvectors required to have negative eigenvalues:
                          R1        A1        R2
   1                    0.97201  -0.23459   0.01320
 RFO step:  Lambda0=7.982325352D-02 Lambda=-2.21175576D-03.
 Linear search not attempted -- option 19 set.
 Iteration  1 RMS(Cart)=  0.09408962 RMS(Int)=  0.00706894
 Iteration  2 RMS(Cart)=  0.00610041 RMS(Int)=  0.00001521
 Iteration  3 RMS(Cart)=  0.00001768 RMS(Int)=  0.00000000
 Iteration  4 RMS(Cart)=  0.00000000 RMS(Int)=  0.00000000
 ClnCor:  largest displacement from symmetrization is 2.22D-15 for atom     1.
 Variable       Old X    -DE/DX   Delta X   Delta X   Delta X     New X
                                 (Linear)    (Quad)   (Total)
    R1        3.78694  -0.05990   0.00000   0.08743   0.08743   3.87437
    R2        1.83043   0.00807   0.00000   0.01731   0.01731   1.84773
    A1        1.68650  -0.00370   0.00000  -0.14192  -0.14192   1.54457
         Item               Value     Threshold  Converged?
 Maximum Force            0.059902     0.000450     NO 
 RMS     Force            0.034962     0.000300     NO 
 Maximum Displacement     0.091701     0.001800     NO 
 RMS     Displacement     0.096635     0.001200     NO 
 Predicted change in Energy= 5.935159D-03
 GradGradGradGradGradGradGradGradGradGradGradGradGradGradGradGradGradGrad

                          Input orientation:                          
 ---------------------------------------------------------------------
 Center     Atomic      Atomic             Coordinates (Angstroms)
 Number     Number       Type             X           Y           Z
 ---------------------------------------------------------------------
      1          8           0       -1.660183   -5.080544   -5.145731
      2         17           0       -0.139755   -3.820591   -5.697325
      3          1           0       -2.125600   -4.838418   -5.970844
 ---------------------------------------------------------------------
                    Distance matrix (angstroms):
                    1          2          3
     1  O    0.000000
     2  Cl   2.050229   0.000000
     3  H    0.977778   2.248191   0.000000
 Stoichiometry    ClHO
 Framework group  CS[SG(ClHO)]
 Deg. of freedom     3
 Full point group                 CS      NOp   2
 Largest Abelian subgroup         CS      NOp   2
 Largest concise Abelian subgroup C1      NOp   1
                         Standard orientation:                         
 ---------------------------------------------------------------------
 Center     Atomic      Atomic             Coordinates (Angstroms)
 Number     Number       Type             X           Y           Z
 ---------------------------------------------------------------------
      1          8           0        0.037594    1.341520   -0.000000
      2         17           0        0.037594   -0.708709    0.000000
      3          1           0       -0.939848    1.315883   -0.000000
 ---------------------------------------------------------------------
 Rotational constants (GHZ):         557.5582229          10.5165938          10.3219033
 Standard basis: SVP (5D, 7F)
 There are    29 symmetry adapted cartesian basis functions of A'  symmetry.
 There are    10 symmetry adapted cartesian basis functions of A"  symmetry.
 There are    27 symmetry adapted basis functions of A'  symmetry.
 There are    10 symmetry adapted basis functions of A"  symmetry.
    37 basis functions,    69 primitive gaussians,    39 cartesian basis functions
    13 alpha electrons       13 beta electrons
       nuclear repulsion energy        43.4335479247 Hartrees.
 NAtoms=    3 NActive=    3 NUniq=    3 SFac= 1.00D+00 NAtFMM=   60 NAOKFM=F Big=F
 Integral buffers will be    131072 words long.
 Raffenetti 2 integral format.
 Two-electron integral symmetry is turned on.
 Nuclear repulsion after empirical dispersion term =       43.4319344763 Hartrees.
 One-electron integrals computed using PRISM.
 NBasis=    37 RedAO= T EigKep=  4.84D-02  NBF=    27    10
 NBsUse=    37 1.00D-06 EigRej= -1.00D+00 NBFU=    27    10
 Initial guess from the checkpoint file:  "/tmp/Gau-22055.chk"
 B after Tr=    -0.000000    0.000000    0.000000
         Rot=    0.999997   -0.000000    0.000000   -0.002376 Ang=  -0.27 deg.
 Initial guess orbital symmetries:
       Occupied  (A') (A') (A') (A') (A') (A") (A') (A') (A') (A')
                 (A") (A') (A")
       Virtual   (A') (A') (A') (A') (A') (A") (A') (A') (A") (A')
                 (A") (A') (A') (A") (A') (A') (A") (A') (A') (A")
                 (A') (A') (A") (A')
 ExpMin= 1.22D-01 ExpMax= 1.04D+04 ExpMxC= 1.57D+03 IAcc=2 IRadAn=         4 AccDes= 0.00D+00
 Harris functional with IExCor=  402 and IRadAn=       4 diagonalized for initial guess.
 HarFok:  IExCor=  402 AccDes= 0.00D+00 IRadAn=         4 IDoV= 1 UseB2=F ITyADJ=14
 ICtDFT=  3500011 ScaDFX=  1.000000  1.000000  1.000000  1.000000
 FoFCou: FMM=F IPFlag=           0 FMFlag=      100000 FMFlg1=           0
         NFxFlg=           0 DoJE=T BraDBF=F KetDBF=T FulRan=T
         wScrn=  0.000000 ICntrl=       500 IOpCl=  0 I1Cent=   200000004 NGrid=           0
         NMat0=    1 NMatS0=      1 NMatT0=    0 NMatD0=    1 NMtDS0=    0 NMtDT0=    0
 Petite list used in FoFCou.
 Keep R1 ints in memory in symmetry-blocked form, NReq=7153137.
 Requested convergence on RMS density matrix=1.00D-08 within 128 cycles.
 Requested convergence on MAX density matrix=1.00D-06.
 Requested convergence on             energy=1.00D-06.
 No special actions if energy rises.
 Integral accuracy reduced to 1.0D-05 until final iterations.
 Initial convergence to 1.0D-05 achieved.  Increase integral accuracy.
 SCF Done:  E(RB3LYP) =  -535.734225394     A.U. after   13 cycles
            NFock= 13  Conv=0.33D-08     -V/T= 2.0031
 Calling FoFJK, ICntrl=      2127 FMM=F ISym2X=1 I1Cent= 0 IOpClX= 0 NMat=1 NMatS=1 NMatT=0.
 ***** Axes restored to original set *****
 -------------------------------------------------------------------
 Center     Atomic                   Forces (Hartrees/Bohr)
 Number     Number              X              Y              Z
 -------------------------------------------------------------------
      1        8           0.047564584    0.041813264   -0.021051370
      2       17          -0.042147532   -0.037201420    0.018891664
      3        1          -0.005417052   -0.004611844    0.002159706
 -------------------------------------------------------------------
 Cartesian Forces:  Max     0.047564584 RMS     0.029863452

 GradGradGradGradGradGradGradGradGradGradGradGradGradGradGradGradGradGrad
 Berny optimization.
 FormGI is forming the generalized inverse of G from B-inverse, IUseBI=4.
 Internal  Forces:  Max     0.059200603 RMS     0.035085990
 Search for a saddle point.
 Step number   2 out of a maximum of  100
 All quantities printed in internal units (Hartrees-Bohrs-Radians)
 Swapping is turned off.
 Update second derivatives using D2CorX and points    1    2
 The second derivative matrix:
                          R1        R2        A1
           R1           0.03955
           R2          -0.00930   0.52731
           A1           0.02817  -0.00099   0.13995
 ITU=  0  0
     Eigenvalues ---    0.03203   0.14729   0.52749
 Eigenvectors required to have negative eigenvalues:
                          R1        A1        R2
   1                    0.96748  -0.25234   0.01767
 RFO step:  Lambda0=7.883421065D-02 Lambda=-1.96415393D-05.
 Linear search not attempted -- option 19 set.
 Iteration  1 RMS(Cart)=  0.00961879 RMS(Int)=  0.00007140
 Iteration  2 RMS(Cart)=  0.00005717 RMS(Int)=  0.00000000
 Iteration  3 RMS(Cart)=  0.00000000 RMS(Int)=  0.00000000
 ClnCor:  largest displacement from symmetrization is 3.97D-15 for atom     3.
 Variable       Old X    -DE/DX   Delta X   Delta X   Delta X     New X
                                 (Linear)    (Quad)   (Total)
    R1        3.87437  -0.05920   0.00000   0.00811   0.00811   3.88248
    R2        1.84773  -0.00039   0.00000   0.00143   0.00143   1.84917
    A1        1.54457   0.01372   0.00000  -0.01377  -0.01377   1.53080
         Item               Value     Threshold  Converged?
 Maximum Force            0.059201     0.000450     NO 
 RMS     Force            0.035086     0.000300     NO 
 Maximum Displacement     0.009745     0.001800     NO 
 RMS     Displacement     0.009641     0.001200     NO 
 Predicted change in Energy= 6.815089D-04
 GradGradGradGradGradGradGradGradGradGradGradGradGradGradGradGradGradGrad

                          Input orientation:                          
 ---------------------------------------------------------------------
 Center     Atomic      Atomic             Coordinates (Angstroms)
 Number     Number       Type             X           Y           Z
 ---------------------------------------------------------------------
      1          8           0       -1.663214   -5.084123   -5.142941
      2         17           0       -0.141881   -3.820473   -5.699530
      3          1           0       -2.120443   -4.834958   -5.971428
 ---------------------------------------------------------------------
                    Distance matrix (angstroms):
                    1          2          3
     1  O    0.000000
     2  Cl   2.054520   0.000000
     3  H    0.978536   2.240048   0.000000
 Stoichiometry    ClHO
 Framework group  CS[SG(ClHO)]
 Deg. of freedom     3
 Full point group                 CS      NOp   2
 Largest Abelian subgroup         CS      NOp   2
 Largest concise Abelian subgroup C1      NOp   1
                         Standard orientation:                         
 ---------------------------------------------------------------------
 Center     Atomic      Atomic             Coordinates (Angstroms)
 Number     Number       Type             X           Y           Z
 ---------------------------------------------------------------------
      1          8           0        0.037606    1.344845   -0.000000
      2         17           0        0.037606   -0.709675    0.000000
      3          1           0       -0.940148    1.305718   -0.000000
 ---------------------------------------------------------------------
 Rotational constants (GHZ):         556.7710167          10.4808295          10.2871804
 Standard basis: SVP (5D, 7F)
 There are    29 symmetry adapted cartesian basis functions of A'  symmetry.
 There are    10 symmetry adapted cartesian basis functions of A"  symmetry.
 There are    27 symmetry adapted basis functions of A'  symmetry.
 There are    10 symmetry adapted basis functions of A"  symmetry.
    37 basis functions,    69 primitive gaussians,    39 cartesian basis functions
    13 alpha electrons       13 beta electrons
       nuclear repulsion energy        43.3714159915 Hartrees.
 NAtoms=    3 NActive=    3 NUniq=    3 SFac= 1.00D+00 NAtFMM=   60 NAOKFM=F Big=F
 Integral buffers will be    131072 words long.
 Raffenetti 2 integral format.
 Two-electron integral symmetry is turned on.
 Nuclear repulsion after empirical dispersion term =       43.3698009030 Hartrees.
 One-electron integrals computed using PRISM.
 NBasis=    37 RedAO= T EigKep=  4.85D-02  NBF=    27    10
 NBsUse=    37 1.00D-06 EigRej= -1.00D+00 NBFU=    27    10
 Initial guess from the checkpoint file:  "/tmp/Gau-22055.chk"
 B after Tr=    -0.000000   -0.000000   -0.000000
         Rot=    1.000000    0.000000    0.000000   -0.000202 Ang=  -0.02 deg.
 Initial guess orbital symmetries:
       Occupied  (A') (A') (A') (A') (A') (A") (A') (A') (A') (A')
                 (A") (A') (A")
       Virtual   (A') (A') (A') (A') (A') (A") (A') (A') (A") (A')
                 (A") (A') (A') (A") (A') (A') (A") (A') (A') (A")
                 (A') (A') (A") (A')
 Keep R1 ints in memory in symmetry-blocked form, NReq=7153137.
 Requested convergence on RMS density matrix=1.00D-08 within 128 cycles.
 Requested convergence on MAX density matrix=1.00D-06.
 Requested convergence on             energy=1.00D-06.
 No special actions if energy rises.
 SCF Done:  E(RB3LYP) =  -535.733544742     A.U. after    9 cycles
            NFock=  9  Conv=0.48D-08     -V/T= 2.0031
 Calling FoFJK, ICntrl=      2127 FMM=F ISym2X=1 I1Cent= 0 IOpClX= 0 NMat=1 NMatS=1 NMatT=0.
 ***** Axes restored to original set *****
 -------------------------------------------------------------------
 Center     Atomic                   Forces (Hartrees/Bohr)
 Number     Number              X              Y              Z
 -------------------------------------------------------------------
      1        8           0.047558466    0.042502471   -0.022148346
      2       17          -0.041735556   -0.037210744    0.019297473
      3        1          -0.005822910   -0.005291727    0.002850872
 -------------------------------------------------------------------
 Cartesian Forces:  Max     0.047558466 RMS     0.030051329

 GradGradGradGradGradGradGradGradGradGradGradGradGradGradGradGradGradGrad
 Berny optimization.
 FormGI is forming the generalized inverse of G from B-inverse, IUseBI=4.
 Internal  Forces:  Max     0.059018936 RMS     0.035214140
 Search for a saddle point.
 Step number   3 out of a maximum of  100
 All quantities printed in internal units (Hartrees-Bohrs-Radians)
 Swapping is turned off.
 Update second derivatives using D2CorX and points    1    2    3
 The second derivative matrix:
                          R1        R2        A1
           R1           0.03402
           R2          -0.01136   0.52656
           A1           0.03205   0.00055   0.13772
 ITU=  0  0  0
     Eigenvalues ---    0.02468   0.14681   0.52683
 Eigenvectors required to have negative eigenvalues:
                          R1        A1        R2
   1                    0.96183  -0.27276   0.02207
 RFO step:  Lambda0=7.455167113D-02 Lambda=-1.21786954D-05.
 Linear search not attempted -- option 19 set.
 Iteration  1 RMS(Cart)=  0.00788357 RMS(Int)=  0.00004736
 Iteration  2 RMS(Cart)=  0.00003686 RMS(Int)=  0.00000000
 Iteration  3 RMS(Cart)=  0.00000000 RMS(Int)=  0.00000000
 ClnCor:  largest displacement from symmetrization is 3.58D-15 for atom     3.
 Variable       Old X    -DE/DX   Delta X   Delta X   Delta X     New X
                                 (Linear)    (Quad)   (Total)
    R1        3.88248  -0.05902   0.00000   0.00623   0.00623   3.88871
    R2        1.84917  -0.00104   0.00000   0.00073   0.00073   1.84990
    A1        1.53080   0.01536   0.00000  -0.01116  -0.01116   1.51964
         Item               Value     Threshold  Converged?
 Maximum Force            0.059019     0.000450     NO 
 RMS     Force            0.035214     0.000300     NO 
 Maximum Displacement     0.008206     0.001800     NO 
 RMS     Displacement     0.007897     0.001200     NO 
 Predicted change in Energy= 5.471740D-04
 GradGradGradGradGradGradGradGradGradGradGradGradGradGradGradGradGradGrad

                          Input orientation:                          
 ---------------------------------------------------------------------
 Center     Atomic      Atomic             Coordinates (Angstroms)
 Number     Number       Type             X           Y           Z
 ---------------------------------------------------------------------
      1          8           0       -1.665704   -5.086963   -5.140808
      2         17           0       -0.143734   -3.820452   -5.701321
      3          1           0       -2.116100   -4.832137   -5.971771
 ---------------------------------------------------------------------
                    Distance matrix (angstroms):
                    1          2          3
     1  O    0.000000
     2  Cl   2.057819   0.000000
     3  H    0.978925   2.233132   0.000000
 Stoichiometry    ClHO
 Framework group  CS[SG(ClHO)]
 Deg. of freedom     3
 Full point group                 CS      NOp   2
 Largest Abelian subgroup         CS      NOp   2
 Largest concise Abelian subgroup C1      NOp   1
                         Standard orientation:                         
 ---------------------------------------------------------------------
 Center     Atomic      Atomic             Coordinates (Angstroms)
 Number     Number       Type             X           Y           Z
 ---------------------------------------------------------------------
      1          8           0        0.037602    1.347422   -0.000000
      2         17           0        0.037602   -0.710396    0.000000
      3          1           0       -0.940042    1.297362   -0.000000
 ---------------------------------------------------------------------
 Rotational constants (GHZ):         556.5494820          10.4537567          10.2610223
 Standard basis: SVP (5D, 7F)
 There are    29 symmetry adapted cartesian basis functions of A'  symmetry.
 There are    10 symmetry adapted cartesian basis functions of A"  symmetry.
 There are    27 symmetry adapted basis functions of A'  symmetry.
 There are    10 symmetry adapted basis functions of A"  symmetry.
    37 basis functions,    69 primitive gaussians,    39 cartesian basis functions
    13 alpha electrons       13 beta electrons
       nuclear repulsion energy        43.3259867911 Hartrees.
 NAtoms=    3 NActive=    3 NUniq=    3 SFac= 1.00D+00 NAtFMM=   60 NAOKFM=F Big=F
 Integral buffers will be    131072 words long.
 Raffenetti 2 integral format.
 Two-electron integral symmetry is turned on.
 Nuclear repulsion after empirical dispersion term =       43.3243703678 Hartrees.
 One-electron integrals computed using PRISM.
 NBasis=    37 RedAO= T EigKep=  4.86D-02  NBF=    27    10
 NBsUse=    37 1.00D-06 EigRej= -1.00D+00 NBFU=    27    10
 Initial guess from the checkpoint file:  "/tmp/Gau-22055.chk"
 B after Tr=     0.000000   -0.000000   -0.000000
         Rot=    1.000000    0.000000    0.000000   -0.000156 Ang=  -0.02 deg.
 Initial guess orbital symmetries:
       Occupied  (A') (A') (A') (A') (A') (A") (A') (A') (A') (A')
                 (A") (A') (A")
       Virtual   (A') (A') (A') (A') (A') (A") (A') (A') (A") (A')
                 (A") (A') (A') (A") (A') (A') (A") (A') (A') (A")
                 (A') (A') (A") (A')
 Keep R1 ints in memory in symmetry-blocked form, NReq=7153137.
 Requested convergence on RMS density matrix=1.00D-08 within 128 cycles.
 Requested convergence on MAX density matrix=1.00D-06.
 Requested convergence on             energy=1.00D-06.
 No special actions if energy rises.
 SCF Done:  E(RB3LYP) =  -535.732997649     A.U. after    8 cycles
            NFock=  8  Conv=0.93D-08     -V/T= 2.0031
 Calling FoFJK, ICntrl=      2127 FMM=F ISym2X=1 I1Cent= 0 IOpClX= 0 NMat=1 NMatS=1 NMatT=0.
 ***** Axes restored to original set *****
 -------------------------------------------------------------------
 Center     Atomic                   Forces (Hartrees/Bohr)
 Number     Number              X              Y              Z
 -------------------------------------------------------------------
      1        8           0.047652935    0.042994109   -0.022837050
      2       17          -0.041385639   -0.037202707    0.019616891
      3        1          -0.006267296   -0.005791402    0.003220158
 -------------------------------------------------------------------
 Cartesian Forces:  Max     0.047652935 RMS     0.030195014

 GradGradGradGradGradGradGradGradGradGradGradGradGradGradGradGradGradGrad
 Berny optimization.
 FormGI is forming the generalized inverse of G from B-inverse, IUseBI=4.
 Internal  Forces:  Max     0.058849029 RMS     0.035324408
 Search for a saddle point.
 Step number   4 out of a maximum of  100
 All quantities printed in internal units (Hartrees-Bohrs-Radians)
 Swapping is turned off.
 Update second derivatives using D2CorX and points    1    2    3    4
 The second derivative matrix:
                          R1        R2        A1
           R1           0.03298
           R2          -0.01101   0.52680
           A1           0.03291   0.00011   0.13746
 ITU=  0  0  0  0
     Eigenvalues ---    0.02326   0.14694   0.52705
 Eigenvectors required to have negative eigenvalues:
                          R1        A1        R2
   1                    0.96069  -0.27683   0.02107
 RFO step:  Lambda0=7.390785526D-02 Lambda=-4.77408101D-07.
 Linear search not attempted -- option 19 set.
 Iteration  1 RMS(Cart)=  0.00159053 RMS(Int)=  0.00000191
 Iteration  2 RMS(Cart)=  0.00000140 RMS(Int)=  0.00000000
 Iteration  3 RMS(Cart)=  0.00000000 RMS(Int)=  0.00000000
 ClnCor:  largest displacement from symmetrization is 1.99D-15 for atom     3.
 Variable       Old X    -DE/DX   Delta X   Delta X   Delta X     New X
                                 (Linear)    (Quad)   (Total)
    R1        3.88871  -0.05885   0.00000   0.00123   0.00123   3.88994
    R2        1.84990  -0.00136   0.00000  -0.00010  -0.00010   1.84980
    A1        1.51964   0.01669   0.00000  -0.00221  -0.00221   1.51742
         Item               Value     Threshold  Converged?
 Maximum Force            0.058849     0.000450     NO 
 RMS     Force            0.035324     0.000300     NO 
 Maximum Displacement     0.001719     0.001800     YES
 RMS     Displacement     0.001591     0.001200     NO 
 Predicted change in Energy= 1.093824D-04
 GradGradGradGradGradGradGradGradGradGradGradGradGradGradGradGradGradGrad

                          Input orientation:                          
 ---------------------------------------------------------------------
 Center     Atomic      Atomic             Coordinates (Angstroms)
 Number     Number       Type             X           Y           Z
 ---------------------------------------------------------------------
      1          8           0       -1.666235   -5.087514   -5.140439
      2         17           0       -0.144112   -3.820452   -5.701681
      3          1           0       -2.115191   -4.831586   -5.971780
 ---------------------------------------------------------------------
                    Distance matrix (angstroms):
                    1          2          3
     1  O    0.000000
     2  Cl   2.058469   0.000000
     3  H    0.978871   2.231702   0.000000
 Stoichiometry    ClHO
 Framework group  CS[SG(ClHO)]
 Deg. of freedom     3
 Full point group                 CS      NOp   2
 Largest Abelian subgroup         CS      NOp   2
 Largest concise Abelian subgroup C1      NOp   1
                         Standard orientation:                         
 ---------------------------------------------------------------------
 Center     Atomic      Atomic             Coordinates (Angstroms)
 Number     Number       Type             X           Y           Z
 ---------------------------------------------------------------------
      1          8           0        0.037595    1.347931    0.000000
      2         17           0        0.037595   -0.710539    0.000000
      3          1           0       -0.939882    1.295710   -0.000000
 ---------------------------------------------------------------------
 Rotational constants (GHZ):         556.6716111          10.4484295          10.2559311
 Standard basis: SVP (5D, 7F)
 There are    29 symmetry adapted cartesian basis functions of A'  symmetry.
 There are    10 symmetry adapted cartesian basis functions of A"  symmetry.
 There are    27 symmetry adapted basis functions of A'  symmetry.
 There are    10 symmetry adapted basis functions of A"  symmetry.
    37 basis functions,    69 primitive gaussians,    39 cartesian basis functions
    13 alpha electrons       13 beta electrons
       nuclear repulsion energy        43.3177567512 Hartrees.
 NAtoms=    3 NActive=    3 NUniq=    3 SFac= 1.00D+00 NAtFMM=   60 NAOKFM=F Big=F
 Integral buffers will be    131072 words long.
 Raffenetti 2 integral format.
 Two-electron integral symmetry is turned on.
 Nuclear repulsion after empirical dispersion term =       43.3161400616 Hartrees.
 One-electron integrals computed using PRISM.
 NBasis=    37 RedAO= T EigKep=  4.86D-02  NBF=    27    10
 NBsUse=    37 1.00D-06 EigRej= -1.00D+00 NBFU=    27    10
 Initial guess from the checkpoint file:  "/tmp/Gau-22055.chk"
 B after Tr=     0.000000    0.000000   -0.000000
         Rot=    1.000000   -0.000000    0.000000   -0.000027 Ang=  -0.00 deg.
 Initial guess orbital symmetries:
       Occupied  (A') (A') (A') (A') (A') (A") (A') (A') (A') (A')
                 (A") (A') (A")
       Virtual   (A') (A') (A') (A') (A') (A") (A') (A') (A") (A')
                 (A") (A') (A') (A") (A') (A') (A") (A') (A') (A")
                 (A') (A') (A") (A')
 Keep R1 ints in memory in symmetry-blocked form, NReq=7153137.
 Requested convergence on RMS density matrix=1.00D-08 within 128 cycles.
 Requested convergence on MAX density matrix=1.00D-06.
 Requested convergence on             energy=1.00D-06.
 No special actions if energy rises.
 SCF Done:  E(RB3LYP) =  -535.732888270     A.U. after    8 cycles
            NFock=  8  Conv=0.21D-08     -V/T= 2.0031
 Calling FoFJK, ICntrl=      2127 FMM=F ISym2X=1 I1Cent= 0 IOpClX= 0 NMat=1 NMatS=1 NMatT=0.
 ***** Axes restored to original set *****
 -------------------------------------------------------------------
 Center     Atomic                   Forces (Hartrees/Bohr)
 Number     Number              X              Y              Z
 -------------------------------------------------------------------
      1        8           0.047730734    0.043059499   -0.022866728
      2       17          -0.041317253   -0.037200610    0.019678484
      3        1          -0.006413481   -0.005858888    0.003188245
 -------------------------------------------------------------------
 Cartesian Forces:  Max     0.047730734 RMS     0.030219748

 GradGradGradGradGradGradGradGradGradGradGradGradGradGradGradGradGradGrad
 Berny optimization.
 FormGI is forming the generalized inverse of G from B-inverse, IUseBI=4.
 Internal  Forces:  Max     0.058815331 RMS     0.035346675
 Search for a saddle point.
 Step number   5 out of a maximum of  100
 All quantities printed in internal units (Hartrees-Bohrs-Radians)
 Swapping is turned off.
 Update second derivatives using D2CorX and points    2    3    4    5
 The second derivative matrix:
                          R1        R2        A1
           R1           0.03221
           R2          -0.00945   0.52663
           A1           0.03356  -0.00265   0.13762
 ITU=  0  0  0  0
     Eigenvalues ---    0.02230   0.14733   0.52684
 Eigenvectors required to have negative eigenvalues:
                          R1        A1        R2
   1                    0.96013  -0.27906   0.01651
 RFO step:  Lambda0=7.337698848D-02 Lambda=-2.96132052D-07.
 Linear search not attempted -- option 19 set.
 Iteration  1 RMS(Cart)=  0.00096147 RMS(Int)=  0.00000070
 Iteration  2 RMS(Cart)=  0.00000049 RMS(Int)=  0.00000000
 ClnCor:  largest displacement from symmetrization is 3.66D-15 for atom     1.
 Variable       Old X    -DE/DX   Delta X   Delta X   Delta X     New X
                                 (Linear)    (Quad)   (Total)
    R1        3.88994  -0.05882   0.00000   0.00081   0.00081   3.89076
    R2        1.84980  -0.00130   0.00000  -0.00054  -0.00054   1.84926
    A1        1.51742   0.01695   0.00000  -0.00125  -0.00125   1.51617
         Item               Value     Threshold  Converged?
 Maximum Force            0.058815     0.000450     NO 
 RMS     Force            0.035347     0.000300     NO 
 Maximum Displacement     0.001106     0.001800     YES
 RMS     Displacement     0.000961     0.001200     YES
 Predicted change in Energy= 6.843520D-05
 GradGradGradGradGradGradGradGradGradGradGradGradGradGradGradGradGradGrad

                          Input orientation:                          
 ---------------------------------------------------------------------
 Center     Atomic      Atomic             Coordinates (Angstroms)
 Number     Number       Type             X           Y           Z
 ---------------------------------------------------------------------
      1          8           0       -1.666623   -5.087819   -5.140326
      2         17           0       -0.144309   -3.820434   -5.701897
      3          1           0       -2.114605   -4.831301   -5.971676
 ---------------------------------------------------------------------
                    Distance matrix (angstroms):
                    1          2          3
     1  O    0.000000
     2  Cl   2.058899   0.000000
     3  H    0.978587   2.230852   0.000000
 Stoichiometry    ClHO
 Framework group  CS[SG(ClHO)]
 Deg. of freedom     3
 Full point group                 CS      NOp   2
 Largest Abelian subgroup         CS      NOp   2
 Largest concise Abelian subgroup C1      NOp   1
                         Standard orientation:                         
 ---------------------------------------------------------------------
 Center     Atomic      Atomic             Coordinates (Angstroms)
 Number     Number       Type             X           Y           Z
 ---------------------------------------------------------------------
      1          8           0        0.037582    1.348258    0.000000
      2         17           0        0.037582   -0.710641   -0.000000
      3          1           0       -0.939546    1.294832    0.000000
 ---------------------------------------------------------------------
 Rotational constants (GHZ):         557.0316386          10.4447808          10.2525376
 Standard basis: SVP (5D, 7F)
 There are    29 symmetry adapted cartesian basis functions of A'  symmetry.
 There are    10 symmetry adapted cartesian basis functions of A"  symmetry.
 There are    27 symmetry adapted basis functions of A'  symmetry.
 There are    10 symmetry adapted basis functions of A"  symmetry.
    37 basis functions,    69 primitive gaussians,    39 cartesian basis functions
    13 alpha electrons       13 beta electrons
       nuclear repulsion energy        43.3132452300 Hartrees.
 NAtoms=    3 NActive=    3 NUniq=    3 SFac= 1.00D+00 NAtFMM=   60 NAOKFM=F Big=F
 Integral buffers will be    131072 words long.
 Raffenetti 2 integral format.
 Two-electron integral symmetry is turned on.
 Nuclear repulsion after empirical dispersion term =       43.3116283812 Hartrees.
 One-electron integrals computed using PRISM.
 NBasis=    37 RedAO= T EigKep=  4.86D-02  NBF=    27    10
 NBsUse=    37 1.00D-06 EigRej= -1.00D+00 NBFU=    27    10
 Initial guess from the checkpoint file:  "/tmp/Gau-22055.chk"
 B after Tr=    -0.000000   -0.000000    0.000000
         Rot=    1.000000    0.000000   -0.000000   -0.000008 Ang=  -0.00 deg.
 Initial guess orbital symmetries:
       Occupied  (A') (A') (A') (A') (A') (A") (A') (A') (A') (A')
                 (A") (A') (A")
       Virtual   (A') (A') (A') (A') (A') (A") (A') (A') (A") (A')
                 (A") (A') (A') (A") (A') (A') (A") (A') (A') (A")
                 (A') (A') (A") (A')
 Keep R1 ints in memory in symmetry-blocked form, NReq=7153137.
 Requested convergence on RMS density matrix=1.00D-08 within 128 cycles.
 Requested convergence on MAX density matrix=1.00D-06.
 Requested convergence on             energy=1.00D-06.
 No special actions if energy rises.
 SCF Done:  E(RB3LYP) =  -535.732819839     A.U. after    8 cycles
            NFock=  8  Conv=0.21D-08     -V/T= 2.0031
 Calling FoFJK, ICntrl=      2127 FMM=F ISym2X=1 I1Cent= 0 IOpClX= 0 NMat=1 NMatS=1 NMatT=0.
 ***** Axes restored to original set *****
 -------------------------------------------------------------------
 Center     Atomic                   Forces (Hartrees/Bohr)
 Number     Number              X              Y              Z
 -------------------------------------------------------------------
      1        8           0.047891304    0.043037741   -0.022679868
      2       17          -0.041286372   -0.037202917    0.019711448
      3        1          -0.006604932   -0.005834824    0.002968419
 -------------------------------------------------------------------
 Cartesian Forces:  Max     0.047891304 RMS     0.030228473

 GradGradGradGradGradGradGradGradGradGradGradGradGradGradGradGradGradGrad
 Berny optimization.
 FormGI is forming the generalized inverse of G from B-inverse, IUseBI=4.
 Internal  Forces:  Max     0.058803440 RMS     0.035360299
 Search for a saddle point.
 Step number   6 out of a maximum of  100
 All quantities printed in internal units (Hartrees-Bohrs-Radians)
 Swapping is turned off.
 Second derivative matrix not updated -- analytic derivatives used.
 The second derivative matrix:
                          R1        R2        A1
           R1           0.03221
           R2          -0.00945   0.52663
           A1           0.03356  -0.00265   0.13762
 ITU=  0  0  0  0
     Eigenvalues ---    0.02230   0.14733   0.52684
 Eigenvectors required to have negative eigenvalues:
                          R1        A1        R2
   1                    0.96013  -0.27906   0.01651
 RFO step:  Lambda0=7.340102373D-02 Lambda= 0.00000000D+00.
 Linear search not attempted -- option 19 set.
 Iteration  1 RMS(Cart)=  0.00001942 RMS(Int)=  0.00000000
 Iteration  2 RMS(Cart)=  0.00000000 RMS(Int)=  0.00000000
 ClnCor:  largest displacement from symmetrization is 1.83D-15 for atom     1.
 Variable       Old X    -DE/DX   Delta X   Delta X   Delta X     New X
                                 (Linear)    (Quad)   (Total)
    R1        3.89076  -0.05880   0.00000   0.00003   0.00003   3.89079
    R2        1.84926  -0.00103   0.00000  -0.00003  -0.00003   1.84923
    A1        1.51617   0.01709   0.00000  -0.00000  -0.00000   1.51617
         Item               Value     Threshold  Converged?
 Maximum Force            0.058803     0.000450     NO 
 RMS     Force            0.035360     0.000300     NO 
 Maximum Displacement     0.000019     0.001800     YES
 RMS     Displacement     0.000019     0.001200     YES
 Predicted change in Energy= 1.988938D-06
 GradGradGradGradGradGradGradGradGradGradGradGradGradGradGradGradGradGrad

                          Input orientation:                          
 ---------------------------------------------------------------------
 Center     Atomic      Atomic             Coordinates (Angstroms)
 Number     Number       Type             X           Y           Z
 ---------------------------------------------------------------------
      1          8           0       -1.666633   -5.087821   -5.140331
      2         17           0       -0.144301   -3.820427   -5.701899
      3          1           0       -2.114604   -4.831305   -5.971669
 ---------------------------------------------------------------------
                    Distance matrix (angstroms):
                    1          2          3
     1  O    0.000000
     2  Cl   2.058917   0.000000
     3  H    0.978571   2.230862   0.000000
 Stoichiometry    ClHO
 Framework group  CS[SG(ClHO)]
 Deg. of freedom     3
 Full point group                 CS      NOp   2
 Largest Abelian subgroup         CS      NOp   2
 Largest concise Abelian subgroup C1      NOp   1
                         Standard orientation:                         
 ---------------------------------------------------------------------
 Center     Atomic      Atomic             Coordinates (Angstroms)
 Number     Number       Type             X           Y           Z
 ---------------------------------------------------------------------
      1          8           0        0.037581    1.348270   -0.000000
      2         17           0        0.037581   -0.710647   -0.000000
      3          1           0       -0.939530    1.294844    0.000000
 ---------------------------------------------------------------------
 Rotational constants (GHZ):         557.0501182          10.4445968          10.2523666
 Standard basis: SVP (5D, 7F)
 There are    29 symmetry adapted cartesian basis functions of A'  symmetry.
 There are    10 symmetry adapted cartesian basis functions of A"  symmetry.
 There are    27 symmetry adapted basis functions of A'  symmetry.
 There are    10 symmetry adapted basis functions of A"  symmetry.
    37 basis functions,    69 primitive gaussians,    39 cartesian basis functions
    13 alpha electrons       13 beta electrons
       nuclear repulsion energy        43.3129918842 Hartrees.
 NAtoms=    3 NActive=    3 NUniq=    3 SFac= 1.00D+00 NAtFMM=   60 NAOKFM=F Big=F
 Integral buffers will be    131072 words long.
 Raffenetti 2 integral format.
 Two-electron integral symmetry is turned on.
 Nuclear repulsion after empirical dispersion term =       43.3113750326 Hartrees.
 One-electron integrals computed using PRISM.
 NBasis=    37 RedAO= T EigKep=  4.86D-02  NBF=    27    10
 NBsUse=    37 1.00D-06 EigRej= -1.00D+00 NBFU=    27    10
 Initial guess from the checkpoint file:  "/tmp/Gau-22055.chk"
 B after Tr=    -0.000000   -0.000000    0.000000
         Rot=    1.000000   -0.000000    0.000000    0.000001 Ang=   0.00 deg.
 Initial guess orbital symmetries:
       Occupied  (A') (A') (A') (A') (A') (A") (A') (A') (A') (A')
                 (A") (A') (A")
       Virtual   (A') (A') (A') (A') (A') (A") (A') (A') (A") (A')
                 (A") (A') (A') (A") (A') (A') (A") (A') (A') (A")
                 (A') (A') (A") (A')
 Keep R1 ints in memory in symmetry-blocked form, NReq=7153137.
 Requested convergence on RMS density matrix=1.00D-08 within 128 cycles.
 Requested convergence on MAX density matrix=1.00D-06.
 Requested convergence on             energy=1.00D-06.
 No special actions if energy rises.
 SCF Done:  E(RB3LYP) =  -535.732817850     A.U. after    5 cycles
            NFock=  5  Conv=0.14D-08     -V/T= 2.0031
 Calling FoFJK, ICntrl=      2127 FMM=F ISym2X=1 I1Cent= 0 IOpClX= 0 NMat=1 NMatS=1 NMatT=0.
 ***** Axes restored to original set *****
 -------------------------------------------------------------------
 Center     Atomic                   Forces (Hartrees/Bohr)
 Number     Number              X              Y              Z
 -------------------------------------------------------------------
      1        8           0.047899376    0.043034185   -0.022666575
      2       17          -0.041287768   -0.037203673    0.019711321
      3        1          -0.006611608   -0.005830512    0.002955255
 -------------------------------------------------------------------
 Cartesian Forces:  Max     0.047899376 RMS     0.030228456

 GradGradGradGradGradGradGradGradGradGradGradGradGradGradGradGradGradGrad
 Berny optimization.
 FormGI is forming the generalized inverse of G from B-inverse, IUseBI=4.
 Internal  Forces:  Max     0.058804882 RMS     0.035360763
 Search for a saddle point.
 Step number   7 out of a maximum of  100
 All quantities printed in internal units (Hartrees-Bohrs-Radians)
 Swapping is turned off.
 Update second derivatives using D2CorX and points    4    5    7
 The second derivative matrix:
                          R1        R2        A1
           R1           0.03246
           R2          -0.00408   0.52081
           A1           0.03221  -0.01044   0.14122
 ITU=  0  0  0  0
     Eigenvalues ---    0.02363   0.14971   0.52114
 Eigenvectors required to have negative eigenvalues:
                          R1        A1        R2
   1                    0.96452  -0.26399   0.00238
 RFO step:  Lambda0=7.417989222D-02 Lambda=-7.37067580D-06.
 Linear search not attempted -- option 19 set.
 Iteration  1 RMS(Cart)=  0.00599056 RMS(Int)=  0.00000520
 Iteration  2 RMS(Cart)=  0.00000367 RMS(Int)=  0.00000000
 Iteration  3 RMS(Cart)=  0.00000000 RMS(Int)=  0.00000000
 ClnCor:  largest displacement from symmetrization is 1.99D-15 for atom     3.
 Variable       Old X    -DE/DX   Delta X   Delta X   Delta X     New X
                                 (Linear)    (Quad)   (Total)
    R1        3.89079  -0.05880   0.00000   0.00791   0.00791   3.89870
    R2        1.84923  -0.00101   0.00000  -0.00151  -0.00151   1.84772
    A1        1.51617   0.01709   0.00000   0.00436   0.00436   1.52053
         Item               Value     Threshold  Converged?
 Maximum Force            0.058805     0.000450     NO 
 RMS     Force            0.035361     0.000300     NO 
 Maximum Displacement     0.006820     0.001800     NO 
 RMS     Displacement     0.005990     0.001200     NO 
 Predicted change in Energy= 3.931946D-04
 GradGradGradGradGradGradGradGradGradGradGradGradGradGradGradGradGradGrad

                          Input orientation:                          
 ---------------------------------------------------------------------
 Center     Atomic      Atomic             Coordinates (Angstroms)
 Number     Number       Type             X           Y           Z
 ---------------------------------------------------------------------
      1          8           0       -1.667491   -5.087806   -5.141170
      2         17           0       -0.140692   -3.818468   -5.701576
      3          1           0       -2.117355   -4.833280   -5.971153
 ---------------------------------------------------------------------
                    Distance matrix (angstroms):
                    1          2          3
     1  O    0.000000
     2  Cl   2.063102   0.000000
     3  H    0.977769   2.238238   0.000000
 Stoichiometry    ClHO
 Framework group  CS[SG(ClHO)]
 Deg. of freedom     3
 Full point group                 CS      NOp   2
 Largest Abelian subgroup         CS      NOp   2
 Largest concise Abelian subgroup C1      NOp   1
                         Standard orientation:                         
 ---------------------------------------------------------------------
 Center     Atomic      Atomic             Coordinates (Angstroms)
 Number     Number       Type             X           Y           Z
 ---------------------------------------------------------------------
      1          8           0        0.037559    1.350841   -0.000000
      2         17           0        0.037559   -0.712261    0.000000
      3          1           0       -0.938975    1.301713   -0.000000
 ---------------------------------------------------------------------
 Rotational constants (GHZ):         557.8453392          10.3997198          10.2093897
 Standard basis: SVP (5D, 7F)
 There are    29 symmetry adapted cartesian basis functions of A'  symmetry.
 There are    10 symmetry adapted cartesian basis functions of A"  symmetry.
 There are    27 symmetry adapted basis functions of A'  symmetry.
 There are    10 symmetry adapted basis functions of A"  symmetry.
    37 basis functions,    69 primitive gaussians,    39 cartesian basis functions
    13 alpha electrons       13 beta electrons
       nuclear repulsion energy        43.2323493468 Hartrees.
 NAtoms=    3 NActive=    3 NUniq=    3 SFac= 1.00D+00 NAtFMM=   60 NAOKFM=F Big=F
 Integral buffers will be    131072 words long.
 Raffenetti 2 integral format.
 Two-electron integral symmetry is turned on.
 Nuclear repulsion after empirical dispersion term =       43.2307321467 Hartrees.
 One-electron integrals computed using PRISM.
 NBasis=    37 RedAO= T EigKep=  4.87D-02  NBF=    27    10
 NBsUse=    37 1.00D-06 EigRej= -1.00D+00 NBFU=    27    10
 Initial guess from the checkpoint file:  "/tmp/Gau-22055.chk"
 B after Tr=     0.000000    0.000000   -0.000000
         Rot=    1.000000   -0.000000    0.000000    0.000145 Ang=   0.02 deg.
 Initial guess orbital symmetries:
       Occupied  (A') (A') (A') (A') (A') (A") (A') (A') (A') (A')
                 (A") (A') (A")
       Virtual   (A') (A') (A') (A') (A') (A") (A') (A') (A") (A')
                 (A") (A') (A') (A") (A') (A') (A") (A') (A') (A")
                 (A') (A') (A") (A')
 Keep R1 ints in memory in symmetry-blocked form, NReq=7153137.
 Requested convergence on RMS density matrix=1.00D-08 within 128 cycles.
 Requested convergence on MAX density matrix=1.00D-06.
 Requested convergence on             energy=1.00D-06.
 No special actions if energy rises.
 SCF Done:  E(RB3LYP) =  -535.732424489     A.U. after    8 cycles
            NFock=  8  Conv=0.71D-08     -V/T= 2.0031
 Calling FoFJK, ICntrl=      2127 FMM=F ISym2X=1 I1Cent= 0 IOpClX= 0 NMat=1 NMatS=1 NMatT=0.
 ***** Axes restored to original set *****
 -------------------------------------------------------------------
 Center     Atomic                   Forces (Hartrees/Bohr)
 Number     Number              X              Y              Z
 -------------------------------------------------------------------
      1        8           0.048386554    0.042759317   -0.021768968
      2       17          -0.041785448   -0.037414794    0.019573174
      3        1          -0.006601107   -0.005344523    0.002195794
 -------------------------------------------------------------------
 Cartesian Forces:  Max     0.048386554 RMS     0.030275523

 GradGradGradGradGradGradGradGradGradGradGradGradGradGradGradGradGradGrad
 Berny optimization.
 FormGI is forming the generalized inverse of G from B-inverse, IUseBI=4.
 Internal  Forces:  Max     0.059259653 RMS     0.035469941
 Search for a saddle point.
 Step number   8 out of a maximum of  100
 All quantities printed in internal units (Hartrees-Bohrs-Radians)
 Swapping is turned off.
 Update second derivatives using D2CorX and points    5    6    7    8
 The second derivative matrix:
                          R1        R2        A1
           R1           0.03983
           R2           0.00275   0.51718
           A1           0.03305  -0.00752   0.14086
 ITU=  0  0  0  0
     Eigenvalues ---    0.02993   0.15060   0.51734
 Eigenvectors required to have negative eigenvalues:
                          R1        A1        R2
   1                    0.95814  -0.28614  -0.00982
 RFO step:  Lambda0=7.817444667D-02 Lambda=-1.50748313D-05.
 Linear search not attempted -- option 19 set.
 Iteration  1 RMS(Cart)=  0.00872493 RMS(Int)=  0.00005734
 Iteration  2 RMS(Cart)=  0.00004069 RMS(Int)=  0.00000000
 Iteration  3 RMS(Cart)=  0.00000000 RMS(Int)=  0.00000000
 ClnCor:  largest displacement from symmetrization is 3.79D-15 for atom     1.
 Variable       Old X    -DE/DX   Delta X   Delta X   Delta X     New X
                                 (Linear)    (Quad)   (Total)
    R1        3.89870  -0.05926   0.00000   0.00655   0.00655   3.90525
    R2        1.84772  -0.00022   0.00000  -0.00180  -0.00180   1.84591
    A1        1.52053   0.01620   0.00000  -0.01193  -0.01193   1.50860
         Item               Value     Threshold  Converged?
 Maximum Force            0.059260     0.000450     NO 
 RMS     Force            0.035470     0.000300     NO 
 Maximum Displacement     0.009730     0.001800     NO 
 RMS     Displacement     0.008732     0.001200     NO 
 Predicted change in Energy= 5.902886D-04
 GradGradGradGradGradGradGradGradGradGradGradGradGradGradGradGradGradGrad

                          Input orientation:                          
 ---------------------------------------------------------------------
 Center     Atomic      Atomic             Coordinates (Angstroms)
 Number     Number       Type             X           Y           Z
 ---------------------------------------------------------------------
      1          8           0       -1.670537   -5.090712   -5.139460
      2         17           0       -0.142795   -3.818494   -5.703531
      3          1           0       -2.112206   -4.830347   -5.970909
 ---------------------------------------------------------------------
                    Distance matrix (angstroms):
                    1          2          3
     1  O    0.000000
     2  Cl   2.066570   0.000000
     3  H    0.976816   2.230228   0.000000
 Stoichiometry    ClHO
 Framework group  CS[SG(ClHO)]
 Deg. of freedom     3
 Full point group                 CS      NOp   2
 Largest Abelian subgroup         CS      NOp   2
 Largest concise Abelian subgroup C1      NOp   1
                         Standard orientation:                         
 ---------------------------------------------------------------------
 Center     Atomic      Atomic             Coordinates (Angstroms)
 Number     Number       Type             X           Y           Z
 ---------------------------------------------------------------------
      1          8           0        0.037497    1.353554   -0.000000
      2         17           0        0.037497   -0.713016    0.000000
      3          1           0       -0.937430    1.292835   -0.000000
 ---------------------------------------------------------------------
 Rotational constants (GHZ):         559.3211539          10.3716193          10.1827974
 Standard basis: SVP (5D, 7F)
 There are    29 symmetry adapted cartesian basis functions of A'  symmetry.
 There are    10 symmetry adapted cartesian basis functions of A"  symmetry.
 There are    27 symmetry adapted basis functions of A'  symmetry.
 There are    10 symmetry adapted basis functions of A"  symmetry.
    37 basis functions,    69 primitive gaussians,    39 cartesian basis functions
    13 alpha electrons       13 beta electrons
       nuclear repulsion energy        43.1924760525 Hartrees.
 NAtoms=    3 NActive=    3 NUniq=    3 SFac= 1.00D+00 NAtFMM=   60 NAOKFM=F Big=F
 Integral buffers will be    131072 words long.
 Raffenetti 2 integral format.
 Two-electron integral symmetry is turned on.
 Nuclear repulsion after empirical dispersion term =       43.1908573515 Hartrees.
 One-electron integrals computed using PRISM.
 NBasis=    37 RedAO= T EigKep=  4.87D-02  NBF=    27    10
 NBsUse=    37 1.00D-06 EigRej= -1.00D+00 NBFU=    27    10
 Initial guess from the checkpoint file:  "/tmp/Gau-22055.chk"
 B after Tr=    -0.000000   -0.000000    0.000000
         Rot=    1.000000   -0.000000    0.000000   -0.000127 Ang=  -0.01 deg.
 Initial guess orbital symmetries:
       Occupied  (A') (A') (A') (A') (A') (A") (A') (A') (A') (A')
                 (A") (A') (A")
       Virtual   (A') (A') (A') (A') (A') (A") (A') (A') (A") (A')
                 (A") (A') (A') (A") (A') (A') (A") (A') (A') (A")
                 (A') (A') (A") (A')
 Keep R1 ints in memory in symmetry-blocked form, NReq=7153137.
 Requested convergence on RMS density matrix=1.00D-08 within 128 cycles.
 Requested convergence on MAX density matrix=1.00D-06.
 Requested convergence on             energy=1.00D-06.
 No special actions if energy rises.
 SCF Done:  E(RB3LYP) =  -535.731834469     A.U. after    9 cycles
            NFock=  9  Conv=0.48D-08     -V/T= 2.0031
 Calling FoFJK, ICntrl=      2127 FMM=F ISym2X=1 I1Cent= 0 IOpClX= 0 NMat=1 NMatS=1 NMatT=0.
 ***** Axes restored to original set *****
 -------------------------------------------------------------------
 Center     Atomic                   Forces (Hartrees/Bohr)
 Number     Number              X              Y              Z
 -------------------------------------------------------------------
      1        8           0.049087269    0.042933108   -0.021378998
      2       17          -0.041420482   -0.037399541    0.019895451
      3        1          -0.007666787   -0.005533567    0.001483546
 -------------------------------------------------------------------
 Cartesian Forces:  Max     0.049087269 RMS     0.030389481

 GradGradGradGradGradGradGradGradGradGradGradGradGradGradGradGradGradGrad
 Berny optimization.
 FormGI is forming the generalized inverse of G from B-inverse, IUseBI=4.
 Internal  Forces:  Max     0.059074857 RMS     0.035593534
 Search for a saddle point.
 Step number   9 out of a maximum of  100
 All quantities printed in internal units (Hartrees-Bohrs-Radians)
 Swapping is turned off.
 Update second derivatives using D2CorX and points    6    7    8    9
 The second derivative matrix:
                          R1        R2        A1
           R1           0.03618
           R2          -0.00495   0.51914
           A1           0.03610  -0.00177   0.13835
 ITU=  0  0  0  0
     Eigenvalues ---    0.02468   0.14979   0.51920
 Eigenvectors required to have negative eigenvalues:
                          R1        A1        R2
   1                    0.95310  -0.30255   0.00845
 RFO step:  Lambda0=7.519026527D-02 Lambda=-1.07242605D-05.
 Linear search not attempted -- option 19 set.
 Iteration  1 RMS(Cart)=  0.00637229 RMS(Int)=  0.00003093
 Iteration  2 RMS(Cart)=  0.00002752 RMS(Int)=  0.00000000
 Iteration  3 RMS(Cart)=  0.00000000 RMS(Int)=  0.00000000
 ClnCor:  largest displacement from symmetrization is 1.33D-15 for atom     3.
 Variable       Old X    -DE/DX   Delta X   Delta X   Delta X     New X
                                 (Linear)    (Quad)   (Total)
    R1        3.90525  -0.05907   0.00000   0.00501   0.00501   3.91026
    R2        1.84591   0.00073   0.00000   0.00243   0.00243   1.84834
    A1        1.50860   0.01762   0.00000  -0.00912  -0.00912   1.49947
         Item               Value     Threshold  Converged?
 Maximum Force            0.059075     0.000450     NO 
 RMS     Force            0.035594     0.000300     NO 
 Maximum Displacement     0.006219     0.001800     NO 
 RMS     Displacement     0.006386     0.001200     NO 
 Predicted change in Energy= 4.610236D-04
 GradGradGradGradGradGradGradGradGradGradGradGradGradGradGradGradGradGrad

                          Input orientation:                          
 ---------------------------------------------------------------------
 Center     Atomic      Atomic             Coordinates (Angstroms)
 Number     Number       Type             X           Y           Z
 ---------------------------------------------------------------------
      1          8           0       -1.672338   -5.093092   -5.137402
      2         17           0       -0.144285   -3.818487   -5.704955
      3          1           0       -2.108915   -4.827974   -5.971543
 ---------------------------------------------------------------------
                    Distance matrix (angstroms):
                    1          2          3
     1  O    0.000000
     2  Cl   2.069222   0.000000
     3  H    0.978099   2.224838   0.000000
 Stoichiometry    ClHO
 Framework group  CS[SG(ClHO)]
 Deg. of freedom     3
 Full point group                 CS      NOp   2
 Largest Abelian subgroup         CS      NOp   2
 Largest concise Abelian subgroup C1      NOp   1
                         Standard orientation:                         
 ---------------------------------------------------------------------
 Center     Atomic      Atomic             Coordinates (Angstroms)
 Number     Number       Type             X           Y           Z
 ---------------------------------------------------------------------
      1          8           0        0.037524    1.355633   -0.000000
      2         17           0        0.037524   -0.713588    0.000000
      3          1           0       -0.938089    1.285933   -0.000000
 ---------------------------------------------------------------------
 Rotational constants (GHZ):         558.2566749          10.3502073          10.1618051
 Standard basis: SVP (5D, 7F)
 There are    29 symmetry adapted cartesian basis functions of A'  symmetry.
 There are    10 symmetry adapted cartesian basis functions of A"  symmetry.
 There are    27 symmetry adapted basis functions of A'  symmetry.
 There are    10 symmetry adapted basis functions of A"  symmetry.
    37 basis functions,    69 primitive gaussians,    39 cartesian basis functions
    13 alpha electrons       13 beta electrons
       nuclear repulsion energy        43.1519305665 Hartrees.
 NAtoms=    3 NActive=    3 NUniq=    3 SFac= 1.00D+00 NAtFMM=   60 NAOKFM=F Big=F
 Integral buffers will be    131072 words long.
 Raffenetti 2 integral format.
 Two-electron integral symmetry is turned on.
 Nuclear repulsion after empirical dispersion term =       43.1503106850 Hartrees.
 One-electron integrals computed using PRISM.
 NBasis=    37 RedAO= T EigKep=  4.88D-02  NBF=    27    10
 NBsUse=    37 1.00D-06 EigRej= -1.00D+00 NBFU=    27    10
 Initial guess from the checkpoint file:  "/tmp/Gau-22055.chk"
 B after Tr=    -0.000000   -0.000000   -0.000000
         Rot=    1.000000   -0.000000    0.000000   -0.000147 Ang=  -0.02 deg.
 Initial guess orbital symmetries:
       Occupied  (A') (A') (A') (A') (A') (A") (A') (A') (A') (A')
                 (A") (A') (A")
       Virtual   (A') (A') (A') (A') (A') (A") (A') (A') (A") (A')
                 (A") (A') (A') (A") (A') (A') (A") (A') (A') (A")
                 (A') (A') (A") (A')
 Keep R1 ints in memory in symmetry-blocked form, NReq=7153137.
 Requested convergence on RMS density matrix=1.00D-08 within 128 cycles.
 Requested convergence on MAX density matrix=1.00D-06.
 Requested convergence on             energy=1.00D-06.
 No special actions if energy rises.
 SCF Done:  E(RB3LYP) =  -535.731373649     A.U. after    8 cycles
            NFock=  8  Conv=0.98D-08     -V/T= 2.0031
 Calling FoFJK, ICntrl=      2127 FMM=F ISym2X=1 I1Cent= 0 IOpClX= 0 NMat=1 NMatS=1 NMatT=0.
 ***** Axes restored to original set *****
 -------------------------------------------------------------------
 Center     Atomic                   Forces (Hartrees/Bohr)
 Number     Number              X              Y              Z
 -------------------------------------------------------------------
      1        8           0.048718110    0.043537013   -0.022685522
      2       17          -0.041107010   -0.037371511    0.020148622
      3        1          -0.007611101   -0.006165502    0.002536900
 -------------------------------------------------------------------
 Cartesian Forces:  Max     0.048718110 RMS     0.030511054

 GradGradGradGradGradGradGradGradGradGradGradGradGradGradGradGradGradGrad
 Berny optimization.
 FormGI is forming the generalized inverse of G from B-inverse, IUseBI=4.
 Internal  Forces:  Max     0.058902637 RMS     0.035678390
 Search for a saddle point.
 Step number  10 out of a maximum of  100
 All quantities printed in internal units (Hartrees-Bohrs-Radians)
 Swapping is turned off.
 Update second derivatives using D2CorX and points    7    8    9   10
 The second derivative matrix:
                          R1        R2        A1
           R1           0.03604
           R2          -0.00910   0.51660
           A1           0.03626   0.00452   0.13830
 ITU=  0  0  0  0
     Eigenvalues ---    0.02428   0.14985   0.51681
 Eigenvectors required to have negative eigenvalues:
                          R1        A1        R2
   1                    0.95254  -0.30373   0.02039
 RFO step:  Lambda0=7.511268860D-02 Lambda=-1.36688853D-06.
 Linear search not attempted -- option 19 set.
 Iteration  1 RMS(Cart)=  0.00096669 RMS(Int)=  0.00000060
 Iteration  2 RMS(Cart)=  0.00000081 RMS(Int)=  0.00000000
 ClnCor:  largest displacement from symmetrization is 8.88D-16 for atom     3.
 Variable       Old X    -DE/DX   Delta X   Delta X   Delta X     New X
                                 (Linear)    (Quad)   (Total)
    R1        3.91026  -0.05890   0.00000   0.00141   0.00141   3.91167
    R2        1.84834  -0.00044   0.00000   0.00163   0.00163   1.84997
    A1        1.49947   0.01869   0.00000  -0.00111  -0.00111   1.49836
         Item               Value     Threshold  Converged?
 Maximum Force            0.058903     0.000450     NO 
 RMS     Force            0.035678     0.000300     NO 
 Maximum Displacement     0.001021     0.001800     YES
 RMS     Displacement     0.000967     0.001200     YES
 Predicted change in Energy= 1.051734D-04
 GradGradGradGradGradGradGradGradGradGradGradGradGradGradGradGradGradGrad

                          Input orientation:                          
 ---------------------------------------------------------------------
 Center     Atomic      Atomic             Coordinates (Angstroms)
 Number     Number       Type             X           Y           Z
 ---------------------------------------------------------------------
      1          8           0       -1.672496   -5.093528   -5.136861
      2         17           0       -0.144200   -3.818325   -5.705131
      3          1           0       -2.108842   -4.827700   -5.971907
 ---------------------------------------------------------------------
                    Distance matrix (angstroms):
                    1          2          3
     1  O    0.000000
     2  Cl   2.069967   0.000000
     3  H    0.978960   2.224821   0.000000
 Stoichiometry    ClHO
 Framework group  CS[SG(ClHO)]
 Deg. of freedom     3
 Full point group                 CS      NOp   2
 Largest Abelian subgroup         CS      NOp   2
 Largest concise Abelian subgroup C1      NOp   1
                         Standard orientation:                         
 ---------------------------------------------------------------------
 Center     Atomic      Atomic             Coordinates (Angstroms)
 Number     Number       Type             X           Y           Z
 ---------------------------------------------------------------------
      1          8           0        0.037554    1.356165    0.000000
      2         17           0        0.037554   -0.713802   -0.000000
      3          1           0       -0.938840    1.285318   -0.000000
 ---------------------------------------------------------------------
 Rotational constants (GHZ):         557.3299268          10.3433911          10.1549275
 Standard basis: SVP (5D, 7F)
 There are    29 symmetry adapted cartesian basis functions of A'  symmetry.
 There are    10 symmetry adapted cartesian basis functions of A"  symmetry.
 There are    27 symmetry adapted basis functions of A'  symmetry.
 There are    10 symmetry adapted basis functions of A"  symmetry.
    37 basis functions,    69 primitive gaussians,    39 cartesian basis functions
    13 alpha electrons       13 beta electrons
       nuclear repulsion energy        43.1356283765 Hartrees.
 NAtoms=    3 NActive=    3 NUniq=    3 SFac= 1.00D+00 NAtFMM=   60 NAOKFM=F Big=F
 Integral buffers will be    131072 words long.
 Raffenetti 2 integral format.
 Two-electron integral symmetry is turned on.
 Nuclear repulsion after empirical dispersion term =       43.1340082606 Hartrees.
 One-electron integrals computed using PRISM.
 NBasis=    37 RedAO= T EigKep=  4.89D-02  NBF=    27    10
 NBsUse=    37 1.00D-06 EigRej= -1.00D+00 NBFU=    27    10
 Initial guess from the checkpoint file:  "/tmp/Gau-22055.chk"
 B after Tr=     0.000000    0.000000    0.000000
         Rot=    1.000000    0.000000   -0.000000   -0.000031 Ang=  -0.00 deg.
 Initial guess orbital symmetries:
       Occupied  (A') (A') (A') (A') (A') (A") (A') (A') (A') (A')
                 (A") (A') (A")
       Virtual   (A') (A') (A') (A') (A') (A") (A') (A') (A") (A')
                 (A") (A') (A') (A") (A') (A') (A") (A') (A') (A")
                 (A') (A') (A") (A')
 Keep R1 ints in memory in symmetry-blocked form, NReq=7153137.
 Requested convergence on RMS density matrix=1.00D-08 within 128 cycles.
 Requested convergence on MAX density matrix=1.00D-06.
[...]
           A1           0.02999   0.00727   0.13975
 ITU=  0  0  0  0
     Eigenvalues ---    0.02775   0.14778   0.50310
 Eigenvectors required to have negative eigenvalues:
                          R1        A1        R2
   1                    0.96499  -0.26040   0.03129
 RFO step:  Lambda0=7.771708764D-02 Lambda= 0.00000000D+00.
 Linear search not attempted -- option 19 set.
 Iteration  1 RMS(Cart)=  0.00000006 RMS(Int)=  0.00000000
 ClnCor:  largest displacement from symmetrization is 8.88D-16 for atom     2.
 Variable       Old X    -DE/DX   Delta X   Delta X   Delta X     New X
                                 (Linear)    (Quad)   (Total)
    R1        3.93572  -0.06014   0.00000   0.00000   0.00000   3.93572
    R2        1.85169  -0.00195   0.00000  -0.00000  -0.00000   1.85169
    A1        1.51082   0.01623   0.00000   0.00000   0.00000   1.51082
         Item               Value     Threshold  Converged?
 Maximum Force            0.060135     0.000450     NO 
 RMS     Force            0.035978     0.000300     NO 
 Maximum Displacement     0.000000     0.001800     YES
 RMS     Displacement     0.000000     0.001200     YES
 Predicted change in Energy= 5.684462D-09
 GradGradGradGradGradGradGradGradGradGradGradGradGradGradGradGradGradGrad

                          Input orientation:                          
 ---------------------------------------------------------------------
 Center     Atomic      Atomic             Coordinates (Angstroms)
 Number     Number       Type             X           Y           Z
 ---------------------------------------------------------------------
      1          8           0       -1.674267   -5.093904   -5.137947
      2         17           0       -0.133255   -3.812380   -5.704156
      3          1           0       -2.118016   -4.833269   -5.971797
 ---------------------------------------------------------------------
                    Distance matrix (angstroms):
                    1          2          3
     1  O    0.000000
     2  Cl   2.082694   0.000000
     3  H    0.979872   2.247915   0.000000
 Stoichiometry    ClHO
 Framework group  CS[SG(ClHO)]
 Deg. of freedom     3
 Full point group                 CS      NOp   2
 Largest Abelian subgroup         CS      NOp   2
 Largest concise Abelian subgroup C1      NOp   1
                         Standard orientation:                         
 ---------------------------------------------------------------------
 Center     Atomic      Atomic             Coordinates (Angstroms)
 Number     Number       Type             X           Y           Z
 ---------------------------------------------------------------------
      1          8           0        0.037620    1.364021   -0.000000
      2         17           0        0.037620   -0.718674    0.000000
      3          1           0       -0.940490    1.305288   -0.000000
 ---------------------------------------------------------------------
 Rotational constants (GHZ):         555.7591721          10.2103132          10.0261151
 Standard basis: SVP (5D, 7F)
 There are    29 symmetry adapted cartesian basis functions of A'  symmetry.
 There are    10 symmetry adapted cartesian basis functions of A"  symmetry.
 There are    27 symmetry adapted basis functions of A'  symmetry.
 There are    10 symmetry adapted basis functions of A"  symmetry.
    37 basis functions,    69 primitive gaussians,    39 cartesian basis functions
    13 alpha electrons       13 beta electrons
       nuclear repulsion energy        42.8776048229 Hartrees.
 NAtoms=    3 NActive=    3 NUniq=    3 SFac= 1.00D+00 NAtFMM=   60 NAOKFM=F Big=F
 Integral buffers will be    131072 words long.
 Raffenetti 2 integral format.
 Two-electron integral symmetry is turned on.
 Nuclear repulsion after empirical dispersion term =       42.8759829373 Hartrees.
 One-electron integrals computed using PRISM.
 NBasis=    37 RedAO= T EigKep=  4.93D-02  NBF=    27    10
 NBsUse=    37 1.00D-06 EigRej= -1.00D+00 NBFU=    27    10
 Initial guess from the checkpoint file:  "/tmp/Gau-22055.chk"
 B after Tr=    -0.000000   -0.000000    0.000000
         Rot=    1.000000    0.000000   -0.000000    0.000000 Ang=   0.00 deg.
 Initial guess orbital symmetries:
       Occupied  (A') (A') (A') (A') (A') (A") (A') (A') (A') (A')
                 (A") (A') (A")
       Virtual   (A') (A') (A') (A') (A') (A") (A') (A') (A") (A')
                 (A") (A') (A') (A") (A') (A') (A") (A') (A') (A")
                 (A') (A') (A") (A')
 Keep R1 ints in memory in symmetry-blocked form, NReq=7153137.
 Requested convergence on RMS density matrix=1.00D-08 within 128 cycles.
 Requested convergence on MAX density matrix=1.00D-06.
 Requested convergence on             energy=1.00D-06.
 No special actions if energy rises.
 SCF Done:  E(RB3LYP) =  -535.730052012     A.U. after    3 cycles
            NFock=  3  Conv=0.12D-09     -V/T= 2.0031
 Calling FoFJK, ICntrl=      2127 FMM=F ISym2X=1 I1Cent= 0 IOpClX= 0 NMat=1 NMatS=1 NMatT=0.
 ***** Axes restored to original set *****
 -------------------------------------------------------------------
 Center     Atomic                   Forces (Hartrees/Bohr)
 Number     Number              X              Y              Z
 -------------------------------------------------------------------
      1        8           0.048291864    0.043729262   -0.023394488
      2       17          -0.042440829   -0.037948811    0.019796554
      3        1          -0.005851036   -0.005780451    0.003597934
 -------------------------------------------------------------------
 Cartesian Forces:  Max     0.048291864 RMS     0.030741734

 GradGradGradGradGradGradGradGradGradGradGradGradGradGradGradGradGradGrad
 Berny optimization.
 Internal  Forces:  Max     0.060135042 RMS     0.035978420
 Search for a saddle point.
 Step number  99 out of a maximum of  100
 All quantities printed in internal units (Hartrees-Bohrs-Radians)
 Swapping is turned off.
 Update second derivatives using D2CorX and points   99
 The second derivative matrix:
                          R1        R2        A1
           R1           0.03628
           R2          -0.01343   0.50260
           A1           0.02999   0.00727   0.13975
 ITU=  0  0  0  0
     Eigenvalues ---    0.02775   0.14778   0.50310
 Eigenvectors required to have negative eigenvalues:
                          R1        A1        R2
   1                    0.96499  -0.26040   0.03129
 RFO step:  Lambda0=7.771709287D-02 Lambda= 0.00000000D+00.
 Linear search not attempted -- option 19 set.
 Iteration  1 RMS(Cart)=  0.00000004 RMS(Int)=  0.00000000
 ClnCor:  largest displacement from symmetrization is 5.33D-15 for atom     3.
 Variable       Old X    -DE/DX   Delta X   Delta X   Delta X     New X
                                 (Linear)    (Quad)   (Total)
    R1        3.93572  -0.06014   0.00000   0.00000   0.00000   3.93572
    R2        1.85169  -0.00195   0.00000   0.00000   0.00000   1.85169
    A1        1.51082   0.01623   0.00000  -0.00000  -0.00000   1.51082
         Item               Value     Threshold  Converged?
 Maximum Force            0.060135     0.000450     NO 
 RMS     Force            0.035978     0.000300     NO 
 Maximum Displacement     0.000000     0.001800     YES
 RMS     Displacement     0.000000     0.001200     YES
 Predicted change in Energy= 4.324744D-09
 GradGradGradGradGradGradGradGradGradGradGradGradGradGradGradGradGradGrad

                          Input orientation:                          
 ---------------------------------------------------------------------
 Center     Atomic      Atomic             Coordinates (Angstroms)
 Number     Number       Type             X           Y           Z
 ---------------------------------------------------------------------
      1          8           0       -1.674267   -5.093904   -5.137947
      2         17           0       -0.133255   -3.812380   -5.704156
      3          1           0       -2.118016   -4.833269   -5.971797
 ---------------------------------------------------------------------
                    Distance matrix (angstroms):
                    1          2          3
     1  O    0.000000
     2  Cl   2.082694   0.000000
     3  H    0.979872   2.247915   0.000000
 Stoichiometry    ClHO
 Framework group  CS[SG(ClHO)]
 Deg. of freedom     3
 Full point group                 CS      NOp   2
 Largest Abelian subgroup         CS      NOp   2
 Largest concise Abelian subgroup C1      NOp   1
                         Standard orientation:                         
 ---------------------------------------------------------------------
 Center     Atomic      Atomic             Coordinates (Angstroms)
 Number     Number       Type             X           Y           Z
 ---------------------------------------------------------------------
      1          8           0        0.037620    1.364021   -0.000000
      2         17           0        0.037620   -0.718674    0.000000
      3          1           0       -0.940490    1.305288   -0.000000
 ---------------------------------------------------------------------
 Rotational constants (GHZ):         555.7591375          10.2103129          10.0261148
 Standard basis: SVP (5D, 7F)
 There are    29 symmetry adapted cartesian basis functions of A'  symmetry.
 There are    10 symmetry adapted cartesian basis functions of A"  symmetry.
 There are    27 symmetry adapted basis functions of A'  symmetry.
 There are    10 symmetry adapted basis functions of A"  symmetry.
    37 basis functions,    69 primitive gaussians,    39 cartesian basis functions
    13 alpha electrons       13 beta electrons
       nuclear repulsion energy        42.8776042101 Hartrees.
 NAtoms=    3 NActive=    3 NUniq=    3 SFac= 1.00D+00 NAtFMM=   60 NAOKFM=F Big=F
 Integral buffers will be    131072 words long.
 Raffenetti 2 integral format.
 Two-electron integral symmetry is turned on.
 Nuclear repulsion after empirical dispersion term =       42.8759823245 Hartrees.
 One-electron integrals computed using PRISM.
 NBasis=    37 RedAO= T EigKep=  4.93D-02  NBF=    27    10
 NBsUse=    37 1.00D-06 EigRej= -1.00D+00 NBFU=    27    10
 Initial guess from the checkpoint file:  "/tmp/Gau-22055.chk"
 B after Tr=     0.000000    0.000000   -0.000000
         Rot=    1.000000   -0.000000    0.000000   -0.000000 Ang=   0.00 deg.
 Initial guess orbital symmetries:
       Occupied  (A') (A') (A') (A') (A') (A") (A') (A') (A') (A')
                 (A") (A') (A")
       Virtual   (A') (A') (A') (A') (A') (A") (A') (A') (A") (A')
                 (A") (A') (A') (A") (A') (A') (A") (A') (A') (A")
                 (A') (A') (A") (A')
 Keep R1 ints in memory in symmetry-blocked form, NReq=7153137.
 Requested convergence on RMS density matrix=1.00D-08 within 128 cycles.
 Requested convergence on MAX density matrix=1.00D-06.
 Requested convergence on             energy=1.00D-06.
 No special actions if energy rises.
 SCF Done:  E(RB3LYP) =  -535.730052008     A.U. after    1 cycles
            NFock=  1  Conv=0.11D-08     -V/T= 2.0031
 Calling FoFJK, ICntrl=      2127 FMM=F ISym2X=1 I1Cent= 0 IOpClX= 0 NMat=1 NMatS=1 NMatT=0.
 ***** Axes restored to original set *****
 -------------------------------------------------------------------
 Center     Atomic                   Forces (Hartrees/Bohr)
 Number     Number              X              Y              Z
 -------------------------------------------------------------------
      1        8           0.048291851    0.043729273   -0.023394518
      2       17          -0.042440827   -0.037948811    0.019796556
      3        1          -0.005851024   -0.005780461    0.003597962
 -------------------------------------------------------------------
 Cartesian Forces:  Max     0.048291851 RMS     0.030741736

 GradGradGradGradGradGradGradGradGradGradGradGradGradGradGradGradGradGrad
 Berny optimization.
 Internal  Forces:  Max     0.060135042 RMS     0.035978422
 Search for a saddle point.
 Step number 100 out of a maximum of  100
 All quantities printed in internal units (Hartrees-Bohrs-Radians)
 Swapping is turned off.
 Update second derivatives using D2CorX and points  100
 The second derivative matrix:
                          R1        R2        A1
           R1           0.03628
           R2          -0.01343   0.50260
           A1           0.02999   0.00727   0.13975
 ITU=  0  0  0  0
     Eigenvalues ---    0.02775   0.14778   0.50310
 Eigenvectors required to have negative eigenvalues:
                          R1        A1        R2
   1                    0.96499  -0.26040   0.03129
 RFO step:  Lambda0=7.771709515D-02 Lambda= 0.00000000D+00.
 Linear search not attempted -- option 19 set.
 Iteration  1 RMS(Cart)=  0.00000001 RMS(Int)=  0.00000000
 ClnCor:  largest displacement from symmetrization is 3.66D-15 for atom     3.
 Variable       Old X    -DE/DX   Delta X   Delta X   Delta X     New X
                                 (Linear)    (Quad)   (Total)
    R1        3.93572  -0.06014   0.00000   0.00000   0.00000   3.93572
    R2        1.85169  -0.00195   0.00000  -0.00000  -0.00000   1.85169
    A1        1.51082   0.01623   0.00000   0.00000   0.00000   1.51082
         Item               Value     Threshold  Converged?
 Maximum Force            0.060135     0.000450     NO 
 RMS     Force            0.035978     0.000300     NO 
 Maximum Displacement     0.000000     0.001800     YES
 RMS     Displacement     0.000000     0.001200     YES
 Predicted change in Energy= 6.114904D-10
 Optimization stopped.
    -- Number of steps exceeded,  NStep= 100
    -- Flag reset to prevent archiving.
                           ----------------------------
                           ! Non-Optimized Parameters !
                           ! (Angstroms and Degrees)  !
 --------------------------                            --------------------------
 ! Name  Definition              Value          Derivative Info.                !
 --------------------------------------------------------------------------------
 ! R1    R(1,2)                  2.0827         -DE/DX =   -0.0601              !
 ! R2    R(1,3)                  0.9799         -DE/DX =   -0.0019              !
 ! A1    A(2,1,3)               86.5637         -DE/DX =    0.0162              !
 --------------------------------------------------------------------------------
 GradGradGradGradGradGradGradGradGradGradGradGradGradGradGradGradGradGrad

                          Input orientation:                          
 ---------------------------------------------------------------------
 Center     Atomic      Atomic             Coordinates (Angstroms)
 Number     Number       Type             X           Y           Z
 ---------------------------------------------------------------------
      1          8           0       -1.674267   -5.093904   -5.137947
      2         17           0       -0.133255   -3.812380   -5.704156
      3          1           0       -2.118016   -4.833269   -5.971797
 ---------------------------------------------------------------------
                    Distance matrix (angstroms):
                    1          2          3
     1  O    0.000000
     2  Cl   2.082694   0.000000
     3  H    0.979872   2.247915   0.000000
 Stoichiometry    ClHO
 Framework group  CS[SG(ClHO)]
 Deg. of freedom     3
 Full point group                 CS      NOp   2
 Largest Abelian subgroup         CS      NOp   2
 Largest concise Abelian subgroup C1      NOp   1
                         Standard orientation:                         
 ---------------------------------------------------------------------
 Center     Atomic      Atomic             Coordinates (Angstroms)
 Number     Number       Type             X           Y           Z
 ---------------------------------------------------------------------
      1          8           0        0.037620    1.364021   -0.000000
      2         17           0        0.037620   -0.718674    0.000000
      3          1           0       -0.940490    1.305288   -0.000000
 ---------------------------------------------------------------------
 Rotational constants (GHZ):         555.7591375          10.2103129          10.0261148

 **********************************************************************

            Population analysis using the SCF density.

 **********************************************************************

 Orbital symmetries:
       Occupied  (A') (A') (A') (A') (A') (A") (A') (A') (A') (A')
                 (A") (A') (A")
       Virtual   (A') (A') (A') (A') (A') (A") (A') (A') (A") (A')
                 (A") (A') (A') (A") (A') (A') (A") (A') (A') (A")
                 (A') (A') (A") (A')
 The electronic state is 1-A'.
 Alpha  occ. eigenvalues -- -101.54910 -19.22193  -9.49768  -7.27103  -7.25526
 Alpha  occ. eigenvalues --   -7.25498  -0.99813  -0.80410  -0.48309  -0.41493
 Alpha  occ. eigenvalues --   -0.36666  -0.33060  -0.30981
 Alpha virt. eigenvalues --   -0.17553   0.05334   0.46748   0.56275   0.66847
 Alpha virt. eigenvalues --    0.70492   0.70662   0.76139   0.76249   0.82794
 Alpha virt. eigenvalues --    0.83078   0.90298   0.95898   0.97422   1.02135
 Alpha virt. eigenvalues --    1.39039   1.39617   1.45071   2.13794   2.58390
 Alpha virt. eigenvalues --    2.67526   2.90285   2.92009   3.63347
          Condensed to atoms (all electrons):
               1          2          3
     1  O    7.788766   0.149043   0.283406
     2  Cl   0.149043  16.849068  -0.006521
     3  H    0.283406  -0.006521   0.510312
 Mulliken charges:
               1
     1  O   -0.221214
     2  Cl   0.008411
     3  H    0.212803
 Sum of Mulliken charges =   0.00000
 Mulliken charges with hydrogens summed into heavy atoms:
               1
     1  O   -0.008411
     2  Cl   0.008411
 Electronic spatial extent (au):  <R**2>=            132.4059
 Charge=             -0.0000 electrons
 Dipole moment (field-independent basis, Debye):
    X=             -1.6648    Y=             -0.1076    Z=              0.0000  Tot=              1.6683
 Quadrupole moment (field-independent basis, Debye-Ang):
   XX=            -16.6352   YY=            -16.3866   ZZ=            -18.7997
   XY=             -2.3929   XZ=              0.0000   YZ=              0.0000
 Traceless Quadrupole moment (field-independent basis, Debye-Ang):
   XX=              0.6386   YY=              0.8872   ZZ=             -1.5259
   XY=             -2.3929   XZ=              0.0000   YZ=              0.0000
 Octapole moment (field-independent basis, Debye-Ang**2):
  XXX=             -2.2234  YYY=              0.2536  ZZZ=              0.0000  XYY=             -3.4586
  XXY=              3.3554  XXZ=              0.0000  XZZ=             -0.2400  YZZ=              0.5113
  YYZ=              0.0000  XYZ=              0.0000
 Hexadecapole moment (field-independent basis, Debye-Ang**3):
 XXXX=            -17.0861 YYYY=           -105.5430 ZZZZ=            -16.8554 XXXY=             -0.3009
 XXXZ=              0.0000 YYYX=             -2.6514 YYYZ=              0.0000 ZZZX=              0.0000
 ZZZY=              0.0000 XXYY=            -19.7129 XXZZ=             -5.9755 YYZZ=            -23.1179
 XXYZ=              0.0000 YYXZ=              0.0000 ZZXY=              0.5540
 N-N= 4.287598232451D+01 E-N=-1.358452202562D+03  KE= 5.340524824034D+02
 Symmetry A'   KE= 4.833008813249D+02
 Symmetry A"   KE= 5.075160107847D+01


 IF AT FIRST YOU DON'T SUCCEED, TRY, TRY AGAIN.
 THEN GIVE UP;
 THERE'S NO USE BEING A DAMN FOOL ABOUT IT.

                                 -- W. C. FIELDS
 Error termination request processed by link 9999.
 Error termination via Lnk1e in /share/apps/g16.a03/g16/l9999.exe at Thu Mar  6 16:42:06 2025.
 Job cpu time:       0 days  0 hours 13 minutes  9.0 seconds.
 Elapsed time:       0 days  0 hours  1 minutes 42.1 seconds.
 File lengths (MBytes):  RWF=      6 Int=      0 D2E=      0 Chk=      1 Scr=      1
