 Entering Gaussian System, Link 0=g16
 Input=ts.gjf
 Output=ts.log
 Initial command:
 /share/apps/g16.a03/g16/l1.exe "/tmp/Gau-6211.inp" -scrdir="/tmp/"
 Entering Link 1 = /share/apps/g16.a03/g16/l1.exe PID=      6213.
  
 Copyright (c) 1988,1990,1992,1993,1995,1998,2003,2009,2016,
            Gaussian, Inc.  All Rights Reserved.
  
 This is part of the Gaussian(R) 16 program.  It is based on
 the Gaussian(R) 09 system (copyright 2009, Gaussian, Inc.),
 the Gaussian(R) 03 system (copyright 2003, Gaussian, Inc.),
 the Gaussian(R) 98 system (copyright 1998, Gaussian, Inc.),
 the Gaussian(R) 94 system (copyright 1995, Gaussian, Inc.),
 the Gaussian 92(TM) system (copyright 1992, Gaussian, Inc.),
 the Gaussian 90(TM) system (copyright 1990, Gaussian, Inc.),
 the Gaussian 88(TM) system (copyright 1988, Gaussian, Inc.),
 the Gaussian 86(TM) system (copyright 1986, Carnegie Mellon
 University), and the Gaussian 82(TM) system (copyright 1983,
 Carnegie Mellon University). Gaussian is a federally registered
 trademark of Gaussian, Inc.
  
 This software contains proprietary and confidential information,
 including trade secrets, belonging to Gaussian, Inc.
  
 This software is provided under written license and may be
 used, copied, transmitted, or stored only in accord with that
 written license.
  
 The following legend is applicable only to US Government
 contracts under FAR:
  
                    RESTRICTED RIGHTS LEGEND
  
 Use, reproduction and disclosure by the US Government is
 subject to restrictions as set forth in subparagraphs (a)
 and (c) of the Commercial Computer Software - Restricted
 Rights clause in FAR 52.227-19.
  
 Gaussian, Inc.
 340 Quinnipiac St., Bldg. 40, Wallingford CT 06492
  
  
 ---------------------------------------------------------------
 Warning -- This program may not be used in any manner that
 competes with the business of Gaussian, Inc. or will provide
 assistance to any competitor of Gaussian, Inc.  The licensee
 of this program is prohibited from giving any competitor of
 Gaussian, Inc. access to this program.  By using this program,
 the user acknowledges that Gaussian, Inc. is engaged in the
 business of creating and licensing software in the field of
 computational chemistry and represents and warrants to the
 licensee that it is not a competitor of Gaussian, Inc. and that
 it will not use this program in any manner prohibited above.
 ---------------------------------------------------------------
  

 Cite this work as:
 Gaussian 16, Revision A.03,
 M. J. Frisch, G. W. Trucks, H. B. Schlegel, G. E. Scuseria, 
 M. A. Robb, J. R. Cheeseman, G. Scalmani, V. Barone, 
 G. A. Petersson, H. Nakatsuji, X. Li, M. Caricato, A. V. Marenich, 
 J. Bloino, B. G. Janesko, R. Gomperts, B. Mennucci, H. P. Hratchian, 
 J. V. Ortiz, A. F. Izmaylov, J. L. Sonnenberg, D. Williams-Young, 
 F. Ding, F. Lipparini, F. Egidi, J. Goings, B. Peng, A. Petrone, 
 T. Henderson, D. Ranasinghe, V. G. Zakrzewski, J. Gao, N. Rega, 
 G. Zheng, W. Liang, M. Hada, M. Ehara, K. Toyota, R. Fukuda, 
 J. Hasegawa, M. Ishida, T. Nakajima, Y. Honda, O. Kitao, H. Nakai, 
 T. Vreven, K. Throssell, J. A. Montgomery, Jr., J. E. Peralta, 
 F. Ogliaro, M. J. Bearpark, J. J. Heyd, E. N. Brothers, K. N. Kudin, 
 V. N. Staroverov, T. A. Keith, R. Kobayashi, J. Normand, 
 K. Raghavachari, A. P. Rendell, J. C. Burant, S. S. Iyengar, 
 J. Tomasi, M. Cossi, J. M. Millam, M. Klene, C. Adamo, R. Cammi, 
 J. W. Ochterski, R. L. Martin, K. Morokuma, O. Farkas, 
 J. B. Foresman, and D. J. Fox, Gaussian, Inc., Wallingford CT, 2016.
 
 ******************************************
 Gaussian 16:  EM64L-G16RevA.03 25-Dec-2016
                 6-Mar-2025 
 ******************************************
 %nproc=8
 Will use up to    8 processors via shared memory.
 %mem=4000MB
 --------------------------------------------------------------------
 #opt=(noeigen,calcfc,ts,recalc=5,maxcyc=200) freq B3LYP/SVP em=GD3BJ
 --------------------------------------------------------------------
 1/5=1,6=200,10=4,11=1,18=20,26=3,38=1,71=5/1,3;
 2/9=110,12=2,17=6,18=5,40=1/2;
 3/5=18,7=101,11=2,25=1,30=1,71=2,74=-5,124=41,140=1/1,2,3;
 4//1;
 5/5=2,38=5/2;
 8/6=4,10=90,11=11/1;
 11/6=1,8=1,9=11,15=111,16=1/1,2,10;
 10/6=1,13=1/2;
 6/7=2,8=2,9=2,10=2,28=1/1;
 7/10=1,18=20,25=1/1,2,3,16;
 1/5=1,6=200,10=4,11=1,18=20,26=3,71=5/3(2);
 2/9=110/2;
 99//99;
 2/9=110/2;
 3/5=18,7=101,11=2,25=1,30=1,71=1,74=-5,124=41/1,2,3;
 4/5=5,16=3,69=1/1;
 5/5=2,38=5/2;
 7//1,2,3,16;
 1/5=1,6=200,11=1,18=20,26=3,71=5/3(-5);
 2/9=110/2;
 6/7=2,8=2,9=2,10=2,19=2,28=1/1;
 99/9=1/99;
 ----------
 ts-407.gjf
 ----------
 Symbolic Z-matrix:
 Charge =  0 Multiplicity = 1
 O                     2.00243   3.89211  -0.19188 
 Cl                    2.15028   3.97514  -2.08147 
 H                     1.25017   3.37947   0.1004 
 

 GradGradGradGradGradGradGradGradGradGradGradGradGradGradGradGradGradGrad
 Berny optimization.
 Initialization pass.
                           ----------------------------
                           !    Initial Parameters    !
                           ! (Angstroms and Degrees)  !
 --------------------------                            --------------------------
 ! Name  Definition              Value          Derivative Info.                !
 --------------------------------------------------------------------------------
 ! R1    R(1,2)                  1.8972         calculate D2E/DX2 analytically  !
 ! R2    R(1,3)                  0.9561         calculate D2E/DX2 analytically  !
 ! A1    A(2,1,3)              112.9091         calculate D2E/DX2 analytically  !
 --------------------------------------------------------------------------------
 Trust Radius=3.00D-01 FncErr=1.00D-07 GrdErr=1.00D-06 EigMax=2.50D+02 EigMin=1.00D-04
 Number of steps in this run=    100 maximum allowed number of steps=    100.
 Search for a saddle point of order  1.
 GradGradGradGradGradGradGradGradGradGradGradGradGradGradGradGradGradGrad

                          Input orientation:                          
 ---------------------------------------------------------------------
 Center     Atomic      Atomic             Coordinates (Angstroms)
 Number     Number       Type             X           Y           Z
 ---------------------------------------------------------------------
      1          8           0        2.002428    3.892106   -0.191883
      2         17           0        2.150282    3.975138   -2.081475
      3          1           0        1.250175    3.379468    0.100404
 ---------------------------------------------------------------------
                    Distance matrix (angstroms):
                    1          2          3
     1  O    0.000000
     2  Cl   1.897185   0.000000
     3  H    0.956093   2.434258   0.000000
 Stoichiometry    ClHO
 Framework group  CS[SG(ClHO)]
 Deg. of freedom     3
 Full point group                 CS      NOp   2
 Largest Abelian subgroup         CS      NOp   2
 Largest concise Abelian subgroup C1      NOp   1
                         Standard orientation:                         
 ---------------------------------------------------------------------
 Center     Atomic      Atomic             Coordinates (Angstroms)
 Number     Number       Type             X           Y           Z
 ---------------------------------------------------------------------
      1          8           0        0.033872    1.226153   -0.000000
      2         17           0        0.033872   -0.671033    0.000000
      3          1           0       -0.846808    1.598332   -0.000000
 ---------------------------------------------------------------------
 Rotational constants (GHZ):         706.3992019          11.9411418          11.7426413
 Standard basis: SVP (5D, 7F)
 There are    29 symmetry adapted cartesian basis functions of A'  symmetry.
 There are    10 symmetry adapted cartesian basis functions of A"  symmetry.
 There are    27 symmetry adapted basis functions of A'  symmetry.
 There are    10 symmetry adapted basis functions of A"  symmetry.
    37 basis functions,    69 primitive gaussians,    39 cartesian basis functions
    13 alpha electrons       13 beta electrons
       nuclear repulsion energy        46.0575592657 Hartrees.
 NAtoms=    3 NActive=    3 NUniq=    3 SFac= 1.00D+00 NAtFMM=   60 NAOKFM=F Big=F
 Integral buffers will be    131072 words long.
 Raffenetti 2 integral format.
 Two-electron integral symmetry is turned on.
 Nuclear repulsion after empirical dispersion term =       46.0559768753 Hartrees.
 One-electron integrals computed using PRISM.
 NBasis=    37 RedAO= T EigKep=  4.53D-02  NBF=    27    10
 NBsUse=    37 1.00D-06 EigRej= -1.00D+00 NBFU=    27    10
 ExpMin= 1.22D-01 ExpMax= 1.04D+04 ExpMxC= 1.57D+03 IAcc=3 IRadAn=         5 AccDes= 0.00D+00
 Harris functional with IExCor=  402 and IRadAn=       5 diagonalized for initial guess.
 HarFok:  IExCor=  402 AccDes= 0.00D+00 IRadAn=         5 IDoV= 1 UseB2=F ITyADJ=14
 ICtDFT=  3500011 ScaDFX=  1.000000  1.000000  1.000000  1.000000
 FoFCou: FMM=F IPFlag=           0 FMFlag=      100000 FMFlg1=           0
         NFxFlg=           0 DoJE=T BraDBF=F KetDBF=T FulRan=T
         wScrn=  0.000000 ICntrl=       500 IOpCl=  0 I1Cent=   200000004 NGrid=           0
         NMat0=    1 NMatS0=      1 NMatT0=    0 NMatD0=    1 NMtDS0=    0 NMtDT0=    0
 Petite list used in FoFCou.
 Initial guess orbital symmetries:
       Occupied  (A') (A') (A') (A') (A') (A") (A') (A') (A') (A')
                 (A") (A') (A")
       Virtual   (A') (A') (A') (A') (A') (A") (A') (A') (A") (A')
                 (A") (A') (A") (A') (A') (A') (A") (A') (A') (A")
                 (A') (A") (A') (A')
 The electronic state of the initial guess is 1-A'.
 Keep R1 ints in memory in symmetry-blocked form, NReq=7153137.
 Requested convergence on RMS density matrix=1.00D-08 within 128 cycles.
 Requested convergence on MAX density matrix=1.00D-06.
 Requested convergence on             energy=1.00D-06.
 No special actions if energy rises.
 Integral accuracy reduced to 1.0D-05 until final iterations.
 Initial convergence to 1.0D-05 achieved.  Increase integral accuracy.
 SCF Done:  E(RB3LYP) =  -535.745160423     A.U. after   12 cycles
            NFock= 12  Conv=0.60D-08     -V/T= 2.0029
 DoSCS=F DFT=T ScalE2(SS,OS)=  1.000000  1.000000
 Range of M.O.s used for correlation:     1    37
 NBasis=    37 NAE=    13 NBE=    13 NFC=     0 NFV=     0
 NROrb=     37 NOA=    13 NOB=    13 NVA=    24 NVB=    24
 Symmetrizing basis deriv contribution to polar:
 IMax=3 JMax=2 DiffMx= 0.00D+00
 G2DrvN: will do     4 centers at a time, making    1 passes.
 Calling FoFCou, ICntrl=  3107 FMM=F I1Cent=   0 AccDes= 0.00D+00.
 End of G2Drv F.D. properties file   721 does not exist.
 End of G2Drv F.D. properties file   722 does not exist.
 End of G2Drv F.D. properties file   788 does not exist.
          IDoAtm=111
          Differentiating once with respect to nuclear coordinates.
 Keep R1 ints in memory in symmetry-blocked form, NReq=7127942.
          There are    12 degrees of freedom in the 1st order CPHF.  IDoFFX=6 NUNeed=     0.
      6 vectors produced by pass  0 Test12= 2.60D-15 8.33D-09 XBig12= 7.55D-02 2.02D-01.
 AX will form     6 AO Fock derivatives at one time.
      6 vectors produced by pass  1 Test12= 2.60D-15 8.33D-09 XBig12= 3.68D-02 1.06D-01.
      6 vectors produced by pass  2 Test12= 2.60D-15 8.33D-09 XBig12= 7.89D-04 8.41D-03.
      6 vectors produced by pass  3 Test12= 2.60D-15 8.33D-09 XBig12= 3.25D-05 2.09D-03.
      6 vectors produced by pass  4 Test12= 2.60D-15 8.33D-09 XBig12= 2.10D-07 1.41D-04.
      6 vectors produced by pass  5 Test12= 2.60D-15 8.33D-09 XBig12= 5.94D-10 7.87D-06.
      3 vectors produced by pass  6 Test12= 2.60D-15 8.33D-09 XBig12= 6.03D-13 2.61D-07.
 InvSVY:  IOpt=1 It=  1 EMax= 3.33D-16
 Solved reduced A of dimension    39 with     6 vectors.
 End of Minotr F.D. properties file   721 does not exist.
 End of Minotr F.D. properties file   722 does not exist.
 End of Minotr F.D. properties file   788 does not exist.

 **********************************************************************

            Population analysis using the SCF density.

 **********************************************************************

 Orbital symmetries:
       Occupied  (A') (A') (A') (A') (A') (A") (A') (A') (A') (A')
                 (A") (A') (A")
       Virtual   (A') (A') (A') (A') (A') (A") (A') (A') (A") (A')
                 (A") (A') (A") (A') (A') (A') (A") (A') (A') (A")
                 (A') (A') (A") (A')
 The electronic state is 1-A'.
 Alpha  occ. eigenvalues -- -101.54708 -19.19994  -9.49651  -7.27019  -7.25374
 Alpha  occ. eigenvalues --   -7.25349  -1.00730  -0.80339  -0.50820  -0.40452
 Alpha  occ. eigenvalues --   -0.37470  -0.32096  -0.29381
 Alpha virt. eigenvalues --   -0.13148   0.06342   0.45852   0.56067   0.68614
 Alpha virt. eigenvalues --    0.69790   0.70438   0.76352   0.76384   0.83915
 Alpha virt. eigenvalues --    0.84194   0.94342   0.99068   1.01962   1.09724
 Alpha virt. eigenvalues --    1.24272   1.42399   1.62296   2.19299   2.60130
 Alpha virt. eigenvalues --    2.72545   2.93918   2.94585   3.66510
          Condensed to atoms (all electrons):
               1          2          3
     1  O    7.839992   0.144238   0.299071
     2  Cl   0.144238  16.787351  -0.011062
     3  H    0.299071  -0.011062   0.508162
 Mulliken charges:
               1
     1  O   -0.283301
     2  Cl   0.079473
     3  H    0.203828
 Sum of Mulliken charges =  -0.00000
 Mulliken charges with hydrogens summed into heavy atoms:
               1
     1  O   -0.079473
     2  Cl   0.079473
 APT charges:
               1
     1  O   -0.596988
     2  Cl   0.094657
     3  H    0.502332
 Sum of APT charges =  -0.00000
 APT charges with hydrogens summed into heavy atoms:
               1
     1  O   -0.094657
     2  Cl   0.094657
 Electronic spatial extent (au):  <R**2>=            119.6546
 Charge=             -0.0000 electrons
 Dipole moment (field-independent basis, Debye):
    X=             -1.5927    Y=              0.2253    Z=             -0.0000  Tot=              1.6086
 Quadrupole moment (field-independent basis, Debye-Ang):
   XX=            -16.9078   YY=            -14.9498   ZZ=            -18.6905
   XY=             -2.9189   XZ=             -0.0000   YZ=             -0.0000
 Traceless Quadrupole moment (field-independent basis, Debye-Ang):
   XX=             -0.0584   YY=              1.8995   ZZ=             -1.8411
   XY=             -2.9189   XZ=             -0.0000   YZ=             -0.0000
 Octapole moment (field-independent basis, Debye-Ang**2):
  XXX=             -1.7996  YYY=              3.5633  ZZZ=             -0.0000  XYY=             -4.5275
  XXY=              3.2502  XXZ=             -0.0000  XZZ=             -0.2347  YZZ=              0.5848
  YYZ=             -0.0000  XYZ=              0.0000
 Hexadecapole moment (field-independent basis, Debye-Ang**3):
 XXXX=            -17.1008 YYYY=            -86.0162 ZZZZ=            -16.7148 XXXY=             -0.2232
 XXXZ=             -0.0000 YYYX=             -5.8786 YYYZ=              0.0000 ZZZX=             -0.0000
 ZZZY=              0.0000 XXYY=            -16.7318 XXZZ=             -5.8452 YYZZ=            -20.6753
 XXYZ=              0.0000 YYXZ=             -0.0000 ZZXY=              0.5559
 N-N= 4.605597687532D+01 E-N=-1.364981666406D+03  KE= 5.341705685128D+02
 Symmetry A'   KE= 4.834339768038D+02
 Symmetry A"   KE= 5.073659170900D+01
  Exact polarizability:   0.000   0.000   0.000   0.000   0.000   0.000
 Approx polarizability:  13.634  -1.935  52.291   0.000  -0.000   9.914
 Calling FoFJK, ICntrl=    100147 FMM=F ISym2X=1 I1Cent= 0 IOpClX= 0 NMat=1 NMatS=1 NMatT=0.
 ***** Axes restored to original set *****
 -------------------------------------------------------------------
 Center     Atomic                   Forces (Hartrees/Bohr)
 Number     Number              X              Y              Z
 -------------------------------------------------------------------
      1        8           0.034877303    0.023538685   -0.037236586
      2       17          -0.013371837   -0.008657656    0.052208885
      3        1          -0.021505466   -0.014881029   -0.014972299
 -------------------------------------------------------------------
 Cartesian Forces:  Max     0.052208885 RMS     0.027977546
 FormGI is forming the generalized inverse of G from B-inverse, IUseBI=4.

 GradGradGradGradGradGradGradGradGradGradGradGradGradGradGradGradGradGrad
 Berny optimization.
 Internal  Forces:  Max     0.053420867 RMS     0.040344164
 Search for a saddle point.
 Step number   1 out of a maximum of  100
 All quantities printed in internal units (Hartrees-Bohrs-Radians)
 Swapping is turned off.
 Second derivative matrix not updated -- analytic derivatives used.
 The second derivative matrix:
                          R1        R2        A1
           R1           0.07240
           R2          -0.00943   0.57217
           A1           0.01149  -0.00293   0.13699
 ITU=  0
     Eigenvalues ---    0.07026   0.13892   0.57237
 Eigenvectors required to have negative eigenvalues:
                          R1        A1        R2
   1                    0.98547  -0.16894   0.01754
 RFO step:  Lambda0=9.261442681D-02 Lambda=-1.59394976D-02.
 Linear search not attempted -- option 19 set.
 Maximum step size (   0.300) exceeded in Quadratic search.
    -- Step size scaled by   0.674
 Iteration  1 RMS(Cart)=  0.12435551 RMS(Int)=  0.03168746
 Iteration  2 RMS(Cart)=  0.04178111 RMS(Int)=  0.00097303
 Iteration  3 RMS(Cart)=  0.00068079 RMS(Int)=  0.00000013
 Iteration  4 RMS(Cart)=  0.00000018 RMS(Int)=  0.00000000
 ClnCor:  largest displacement from symmetrization is 3.51D-15 for atom     3.
 Variable       Old X    -DE/DX   Delta X   Delta X   Delta X     New X
                                 (Linear)    (Quad)   (Total)
    R1        3.58516  -0.05342   0.00000   0.17302   0.17302   3.75818
    R2        1.80675   0.02032   0.00000   0.02630   0.02630   1.83305
    A1        1.97064  -0.04020   0.00000  -0.24366  -0.24366   1.72697
         Item               Value     Threshold  Converged?
 Maximum Force            0.053421     0.000450     NO 
 RMS     Force            0.040344     0.000300     NO 
 Maximum Displacement     0.174404     0.001800     NO 
 RMS     Displacement     0.155272     0.001200     NO 
 Predicted change in Energy= 3.752415D-03
 GradGradGradGradGradGradGradGradGradGradGradGradGradGradGradGradGradGrad

                          Input orientation:                          
 ---------------------------------------------------------------------
 Center     Atomic      Atomic             Coordinates (Angstroms)
 Number     Number       Type             X           Y           Z
 ---------------------------------------------------------------------
      1          8           0        2.041482    3.919760   -0.099593
      2         17           0        2.115163    3.951023   -2.086726
      3          1           0        1.246240    3.375930    0.013364
 ---------------------------------------------------------------------
                    Distance matrix (angstroms):
                    1          2          3
     1  O    0.000000
     2  Cl   1.988744   0.000000
     3  H    0.970010   2.344384   0.000000
 Stoichiometry    ClHO
 Framework group  CS[SG(ClHO)]
 Deg. of freedom     3
 Full point group                 CS      NOp   2
 Largest Abelian subgroup         CS      NOp   2
 Largest concise Abelian subgroup C1      NOp   1
                         Standard orientation:                         
 ---------------------------------------------------------------------
 Center     Atomic      Atomic             Coordinates (Angstroms)
 Number     Number       Type             X           Y           Z
 ---------------------------------------------------------------------
      1          8           0        0.036854    1.294530    0.000000
      2         17           0        0.036854   -0.694214   -0.000000
      3          1           0       -0.921350    1.445407    0.000000
 ---------------------------------------------------------------------
 Rotational constants (GHZ):         586.6671344          11.0531460          10.8487493
 Standard basis: SVP (5D, 7F)
 There are    29 symmetry adapted cartesian basis functions of A'  symmetry.
 There are    10 symmetry adapted cartesian basis functions of A"  symmetry.
 There are    27 symmetry adapted basis functions of A'  symmetry.
 There are    10 symmetry adapted basis functions of A"  symmetry.
    37 basis functions,    69 primitive gaussians,    39 cartesian basis functions
    13 alpha electrons       13 beta electrons
       nuclear repulsion energy        44.3892738159 Hartrees.
 NAtoms=    3 NActive=    3 NUniq=    3 SFac= 1.00D+00 NAtFMM=   60 NAOKFM=F Big=F
 Integral buffers will be    131072 words long.
 Raffenetti 2 integral format.
 Two-electron integral symmetry is turned on.
 Nuclear repulsion after empirical dispersion term =       44.3876781285 Hartrees.
 One-electron integrals computed using PRISM.
 NBasis=    37 RedAO= T EigKep=  4.70D-02  NBF=    27    10
 NBsUse=    37 1.00D-06 EigRej= -1.00D+00 NBFU=    27    10
 Initial guess from the checkpoint file:  "/tmp/Gau-6213.chk"
 B after Tr=     0.000000   -0.000000   -0.000000
         Rot=    0.999985   -0.000000   -0.000000   -0.005446 Ang=  -0.62 deg.
 Initial guess orbital symmetries:
       Occupied  (A') (A') (A') (A') (A') (A") (A') (A') (A') (A')
                 (A") (A') (A")
       Virtual   (A') (A') (A') (A') (A') (A") (A') (A') (A") (A')
                 (A") (A') (A") (A') (A') (A') (A") (A') (A') (A")
                 (A') (A') (A") (A')
 ExpMin= 1.22D-01 ExpMax= 1.04D+04 ExpMxC= 1.57D+03 IAcc=2 IRadAn=         4 AccDes= 0.00D+00
 Harris functional with IExCor=  402 and IRadAn=       4 diagonalized for initial guess.
 HarFok:  IExCor=  402 AccDes= 0.00D+00 IRadAn=         4 IDoV= 1 UseB2=F ITyADJ=14
 ICtDFT=  3500011 ScaDFX=  1.000000  1.000000  1.000000  1.000000
 FoFCou: FMM=F IPFlag=           0 FMFlag=      100000 FMFlg1=           0
         NFxFlg=           0 DoJE=T BraDBF=F KetDBF=T FulRan=T
         wScrn=  0.000000 ICntrl=       500 IOpCl=  0 I1Cent=   200000004 NGrid=           0
         NMat0=    1 NMatS0=      1 NMatT0=    0 NMatD0=    1 NMtDS0=    0 NMtDT0=    0
 Petite list used in FoFCou.
 Keep R1 ints in memory in symmetry-blocked form, NReq=7153137.
 Requested convergence on RMS density matrix=1.00D-08 within 128 cycles.
 Requested convergence on MAX density matrix=1.00D-06.
 Requested convergence on             energy=1.00D-06.
 No special actions if energy rises.
 Integral accuracy reduced to 1.0D-05 until final iterations.
 Initial convergence to 1.0D-05 achieved.  Increase integral accuracy.
 SCF Done:  E(RB3LYP) =  -535.741590857     A.U. after   14 cycles
            NFock= 14  Conv=0.24D-08     -V/T= 2.0031
 Calling FoFJK, ICntrl=      2127 FMM=F ISym2X=1 I1Cent= 0 IOpClX= 0 NMat=1 NMatS=1 NMatT=0.
 ***** Axes restored to original set *****
 -------------------------------------------------------------------
 Center     Atomic                   Forces (Hartrees/Bohr)
 Number     Number              X              Y              Z
 -------------------------------------------------------------------
      1        8           0.009955066    0.006285574   -0.055393464
      2       17          -0.004122765   -0.002250697    0.059363885
      3        1          -0.005832301   -0.004034876   -0.003970421
 -------------------------------------------------------------------
 Cartesian Forces:  Max     0.059363885 RMS     0.027526233

 GradGradGradGradGradGradGradGradGradGradGradGradGradGradGradGradGradGrad
 Berny optimization.
 FormGI is forming the generalized inverse of G from B-inverse, IUseBI=4.
 Internal  Forces:  Max     0.059504165 RMS     0.034930965
 Search for a saddle point.
 Step number   2 out of a maximum of  100
 All quantities printed in internal units (Hartrees-Bohrs-Radians)
 Swapping is turned off.
 Update second derivatives using D2CorX and points    1    2
 The second derivative matrix:
                          R1        R2        A1
           R1           0.05869
           R2          -0.01111   0.57197
           A1           0.01551  -0.00255   0.13984
 ITU=  0  0
     Eigenvalues ---    0.05562   0.14266   0.57223
 Eigenvectors required to have negative eigenvalues:
                          R1        A1        R2
   1                    0.98337  -0.18049   0.02027
 RFO step:  Lambda0=9.105339114D-02 Lambda=-2.66214462D-03.
 Linear search not attempted -- option 19 set.
 Iteration  1 RMS(Cart)=  0.10147370 RMS(Int)=  0.00836248
 Iteration  2 RMS(Cart)=  0.00716602 RMS(Int)=  0.00002035
 Iteration  3 RMS(Cart)=  0.00002365 RMS(Int)=  0.00000000
 Iteration  4 RMS(Cart)=  0.00000000 RMS(Int)=  0.00000000
 ClnCor:  largest displacement from symmetrization is 1.02D-15 for atom     1.
 Variable       Old X    -DE/DX   Delta X   Delta X   Delta X     New X
                                 (Linear)    (Quad)   (Total)
    R1        3.75818  -0.05950   0.00000   0.10683   0.10683   3.86502
    R2        1.83305   0.00658   0.00000   0.01511   0.01511   1.84817
    A1        1.72697  -0.00874   0.00000  -0.15449  -0.15449   1.57248
         Item               Value     Threshold  Converged?
 Maximum Force            0.059504     0.000450     NO 
 RMS     Force            0.034931     0.000300     NO 
 Maximum Displacement     0.119135     0.001800     NO 
 RMS     Displacement     0.104272     0.001200     NO 
 Predicted change in Energy= 6.707970D-03
 GradGradGradGradGradGradGradGradGradGradGradGradGradGradGradGradGradGrad

                          Input orientation:                          
 ---------------------------------------------------------------------
 Center     Atomic      Atomic             Coordinates (Angstroms)
 Number     Number       Type             X           Y           Z
 ---------------------------------------------------------------------
      1          8           0        2.059756    3.932867   -0.039110
      2         17           0        2.090052    3.933841   -2.084164
      3          1           0        1.253077    3.380005   -0.049680
 ---------------------------------------------------------------------
                    Distance matrix (angstroms):
                    1          2          3
     1  O    0.000000
     2  Cl   2.045279   0.000000
     3  H    0.978008   2.268565   0.000000
 Stoichiometry    ClHO
 Framework group  CS[SG(ClHO)]
 Deg. of freedom     3
 Full point group                 CS      NOp   2
 Largest Abelian subgroup         CS      NOp   2
 Largest concise Abelian subgroup C1      NOp   1
                         Standard orientation:                         
 ---------------------------------------------------------------------
 Center     Atomic      Atomic             Coordinates (Angstroms)
 Number     Number       Type             X           Y           Z
 ---------------------------------------------------------------------
      1          8           0        0.037616    1.337234   -0.000000
      2         17           0        0.037616   -0.708044    0.000000
      3          1           0       -0.940391    1.338878   -0.000000
 ---------------------------------------------------------------------
 Rotational constants (GHZ):         557.8063760          10.5506768          10.3548197
 Standard basis: SVP (5D, 7F)
 There are    29 symmetry adapted cartesian basis functions of A'  symmetry.
 There are    10 symmetry adapted cartesian basis functions of A"  symmetry.
 There are    27 symmetry adapted basis functions of A'  symmetry.
 There are    10 symmetry adapted basis functions of A"  symmetry.
    37 basis functions,    69 primitive gaussians,    39 cartesian basis functions
    13 alpha electrons       13 beta electrons
       nuclear repulsion energy        43.4815528817 Hartrees.
 NAtoms=    3 NActive=    3 NUniq=    3 SFac= 1.00D+00 NAtFMM=   60 NAOKFM=F Big=F
 Integral buffers will be    131072 words long.
 Raffenetti 2 integral format.
 Two-electron integral symmetry is turned on.
 Nuclear repulsion after empirical dispersion term =       43.4799422465 Hartrees.
 One-electron integrals computed using PRISM.
 NBasis=    37 RedAO= T EigKep=  4.84D-02  NBF=    27    10
 NBsUse=    37 1.00D-06 EigRej= -1.00D+00 NBFU=    27    10
 Initial guess from the checkpoint file:  "/tmp/Gau-6213.chk"
 B after Tr=    -0.000000   -0.000000   -0.000000
         Rot=    0.999997    0.000000   -0.000000   -0.002610 Ang=  -0.30 deg.
 Initial guess orbital symmetries:
       Occupied  (A') (A') (A') (A') (A') (A") (A') (A') (A') (A')
                 (A") (A') (A")
       Virtual   (A') (A') (A') (A') (A') (A") (A') (A') (A") (A')
                 (A") (A') (A") (A') (A') (A') (A") (A') (A') (A")
                 (A') (A') (A") (A')
 ExpMin= 1.22D-01 ExpMax= 1.04D+04 ExpMxC= 1.57D+03 IAcc=2 IRadAn=         4 AccDes= 0.00D+00
 Harris functional with IExCor=  402 and IRadAn=       4 diagonalized for initial guess.
 HarFok:  IExCor=  402 AccDes= 0.00D+00 IRadAn=         4 IDoV= 1 UseB2=F ITyADJ=14
 ICtDFT=  3500011 ScaDFX=  1.000000  1.000000  1.000000  1.000000
 FoFCou: FMM=F IPFlag=           0 FMFlag=      100000 FMFlg1=           0
         NFxFlg=           0 DoJE=T BraDBF=F KetDBF=T FulRan=T
         wScrn=  0.000000 ICntrl=       500 IOpCl=  0 I1Cent=   200000004 NGrid=           0
         NMat0=    1 NMatS0=      1 NMatT0=    0 NMatD0=    1 NMtDS0=    0 NMtDT0=    0
 Petite list used in FoFCou.
 Keep R1 ints in memory in symmetry-blocked form, NReq=7153137.
 Requested convergence on RMS density matrix=1.00D-08 within 128 cycles.
 Requested convergence on MAX density matrix=1.00D-06.
 Requested convergence on             energy=1.00D-06.
 No special actions if energy rises.
 Integral accuracy reduced to 1.0D-05 until final iterations.
 Initial convergence to 1.0D-05 achieved.  Increase integral accuracy.
 SCF Done:  E(RB3LYP) =  -535.735114589     A.U. after   13 cycles
            NFock= 13  Conv=0.33D-08     -V/T= 2.0031
 Calling FoFJK, ICntrl=      2127 FMM=F ISym2X=1 I1Cent= 0 IOpClX= 0 NMat=1 NMatS=1 NMatT=0.
 ***** Axes restored to original set *****
 -------------------------------------------------------------------
 Center     Atomic                   Forces (Hartrees/Bohr)
 Number     Number              X              Y              Z
 -------------------------------------------------------------------
      1        8          -0.001744594   -0.001827099   -0.065287429
      2       17           0.001278376    0.001454484    0.059794043
      3        1           0.000466219    0.000372615    0.005493387
 -------------------------------------------------------------------
 Cartesian Forces:  Max     0.065287429 RMS     0.029586861

 GradGradGradGradGradGradGradGradGradGradGradGradGradGradGradGradGradGrad
 Berny optimization.
 FormGI is forming the generalized inverse of G from B-inverse, IUseBI=4.
 Internal  Forces:  Max     0.059767915 RMS     0.035002177
 Search for a saddle point.
 Step number   3 out of a maximum of  100
 All quantities printed in internal units (Hartrees-Bohrs-Radians)
 Swapping is turned off.
 Update second derivatives using D2CorX and points    1    2    3
 The second derivative matrix:
                          R1        R2        A1
           R1           0.03921
           R2          -0.01452   0.57138
           A1           0.02399  -0.00099   0.13872
 ITU=  0  0  0
     Eigenvalues ---    0.03337   0.14416   0.57178
 Eigenvectors required to have negative eigenvalues:
                          R1        A1        R2
   1                    0.97477  -0.22168   0.02590
 RFO step:  Lambda0=7.946654916D-02 Lambda=-7.97049885D-05.
 Linear search not attempted -- option 19 set.
 Iteration  1 RMS(Cart)=  0.01934765 RMS(Int)=  0.00029255
 Iteration  2 RMS(Cart)=  0.00023146 RMS(Int)=  0.00000002
 Iteration  3 RMS(Cart)=  0.00000002 RMS(Int)=  0.00000000
 ClnCor:  largest displacement from symmetrization is 4.41D-15 for atom     3.
 Variable       Old X    -DE/DX   Delta X   Delta X   Delta X     New X
                                 (Linear)    (Quad)   (Total)
    R1        3.86502  -0.05977   0.00000   0.01754   0.01754   3.88256
    R2        1.84817  -0.00065   0.00000   0.00203   0.00203   1.85020
    A1        1.57248   0.01014   0.00000  -0.02787  -0.02787   1.54460
         Item               Value     Threshold  Converged?
 Maximum Force            0.059768     0.000450     NO 
 RMS     Force            0.035002     0.000300     NO 
 Maximum Displacement     0.022978     0.001800     NO 
 RMS     Displacement     0.019432     0.001200     NO 
 Predicted change in Energy= 1.381494D-03
 GradGradGradGradGradGradGradGradGradGradGradGradGradGradGradGradGradGrad

                          Input orientation:                          
 ---------------------------------------------------------------------
 Center     Atomic      Atomic             Coordinates (Angstroms)
 Number     Number       Type             X           Y           Z
 ---------------------------------------------------------------------
      1          8           0        2.062350    3.934748   -0.028342
      2         17           0        2.085222    3.930545   -2.082773
      3          1           0        1.255313    3.381419   -0.061839
 ---------------------------------------------------------------------
                    Distance matrix (angstroms):
                    1          2          3
     1  O    0.000000
     2  Cl   2.054563   0.000000
     3  H    0.979083   2.252656   0.000000
 Stoichiometry    ClHO
 Framework group  CS[SG(ClHO)]
 Deg. of freedom     3
 Full point group                 CS      NOp   2
 Largest Abelian subgroup         CS      NOp   2
 Largest concise Abelian subgroup C1      NOp   1
                         Standard orientation:                         
 ---------------------------------------------------------------------
 Center     Atomic      Atomic             Coordinates (Angstroms)
 Number     Number       Type             X           Y           Z
 ---------------------------------------------------------------------
      1          8           0        0.037644    1.344354    0.000000
      2         17           0        0.037644   -0.710209   -0.000000
      3          1           0       -0.941103    1.318711   -0.000000
 ---------------------------------------------------------------------
 Rotational constants (GHZ):         556.0735456          10.4722564          10.2786831
 Standard basis: SVP (5D, 7F)
 There are    29 symmetry adapted cartesian basis functions of A'  symmetry.
 There are    10 symmetry adapted cartesian basis functions of A"  symmetry.
 There are    27 symmetry adapted basis functions of A'  symmetry.
 There are    10 symmetry adapted basis functions of A"  symmetry.
    37 basis functions,    69 primitive gaussians,    39 cartesian basis functions
    13 alpha electrons       13 beta electrons
       nuclear repulsion energy        43.3458019339 Hartrees.
 NAtoms=    3 NActive=    3 NUniq=    3 SFac= 1.00D+00 NAtFMM=   60 NAOKFM=F Big=F
 Integral buffers will be    131072 words long.
 Raffenetti 2 integral format.
 Two-electron integral symmetry is turned on.
 Nuclear repulsion after empirical dispersion term =       43.3441879133 Hartrees.
 One-electron integrals computed using PRISM.
 NBasis=    37 RedAO= T EigKep=  4.86D-02  NBF=    27    10
 NBsUse=    37 1.00D-06 EigRej= -1.00D+00 NBFU=    27    10
 Initial guess from the checkpoint file:  "/tmp/Gau-6213.chk"
 B after Tr=    -0.000000    0.000000    0.000000
         Rot=    1.000000   -0.000000    0.000000   -0.000404 Ang=  -0.05 deg.
 Initial guess orbital symmetries:
       Occupied  (A') (A') (A') (A') (A') (A") (A') (A') (A') (A')
                 (A") (A') (A")
       Virtual   (A') (A') (A') (A') (A') (A") (A') (A') (A") (A')
                 (A") (A') (A') (A") (A') (A') (A") (A') (A') (A")
                 (A') (A') (A") (A')
 ExpMin= 1.22D-01 ExpMax= 1.04D+04 ExpMxC= 1.57D+03 IAcc=2 IRadAn=         4 AccDes= 0.00D+00
 Harris functional with IExCor=  402 and IRadAn=       4 diagonalized for initial guess.
 HarFok:  IExCor=  402 AccDes= 0.00D+00 IRadAn=         4 IDoV= 1 UseB2=F ITyADJ=14
 ICtDFT=  3500011 ScaDFX=  1.000000  1.000000  1.000000  1.000000
 FoFCou: FMM=F IPFlag=           0 FMFlag=      100000 FMFlg1=           0
         NFxFlg=           0 DoJE=T BraDBF=F KetDBF=T FulRan=T
         wScrn=  0.000000 ICntrl=       500 IOpCl=  0 I1Cent=   200000004 NGrid=           0
         NMat0=    1 NMatS0=      1 NMatT0=    0 NMatD0=    1 NMtDS0=    0 NMtDT0=    0
 Petite list used in FoFCou.
 Keep R1 ints in memory in symmetry-blocked form, NReq=7153137.
 Requested convergence on RMS density matrix=1.00D-08 within 128 cycles.
 Requested convergence on MAX density matrix=1.00D-06.
 Requested convergence on             energy=1.00D-06.
 No special actions if energy rises.
 Integral accuracy reduced to 1.0D-05 until final iterations.
 Initial convergence to 1.0D-05 achieved.  Increase integral accuracy.
 SCF Done:  E(RB3LYP) =  -535.733737346     A.U. after   12 cycles
            NFock= 12  Conv=0.29D-08     -V/T= 2.0031
 Calling FoFJK, ICntrl=      2127 FMM=F ISym2X=1 I1Cent= 0 IOpClX= 0 NMat=1 NMatS=1 NMatT=0.
 ***** Axes restored to original set *****
 -------------------------------------------------------------------
 Center     Atomic                   Forces (Hartrees/Bohr)
 Number     Number              X              Y              Z
 -------------------------------------------------------------------
      1        8          -0.003234241   -0.002862750   -0.066827716
      2       17           0.002192097    0.002077918    0.059517616
      3        1           0.001042144    0.000784832    0.007310100
 -------------------------------------------------------------------
 Cartesian Forces:  Max     0.066827716 RMS     0.029983715

 GradGradGradGradGradGradGradGradGradGradGradGradGradGradGradGradGradGrad
 Berny optimization.
 FormGI is forming the generalized inverse of G from B-inverse, IUseBI=4.
 Internal  Forces:  Max     0.059493622 RMS     0.035225028
 Search for a saddle point.
 Step number   4 out of a maximum of  100
 All quantities printed in internal units (Hartrees-Bohrs-Radians)
 Swapping is turned off.
 Update second derivatives using D2CorX and points    1    2    3    4
 The second derivative matrix:
                          R1        R2        A1
           R1           0.03183
           R2          -0.01548   0.57126
           A1           0.02874  -0.00034   0.13627
 ITU=  0  0  0  0
     Eigenvalues ---    0.02403   0.14362   0.57170
 Eigenvectors required to have negative eigenvalues:
                          R1        A1        R2
   1                    0.96840  -0.24793   0.02724
 RFO step:  Lambda0=7.417607472D-02 Lambda=-2.10799805D-05.
 Linear search not attempted -- option 19 set.
 Iteration  1 RMS(Cart)=  0.01038868 RMS(Int)=  0.00008304
 Iteration  2 RMS(Cart)=  0.00006339 RMS(Int)=  0.00000000
 Iteration  3 RMS(Cart)=  0.00000000 RMS(Int)=  0.00000000
 ClnCor:  largest displacement from symmetrization is 2.37D-15 for atom     3.
 Variable       Old X    -DE/DX   Delta X   Delta X   Delta X     New X
                                 (Linear)    (Quad)   (Total)
    R1        3.88256  -0.05949   0.00000   0.00872   0.00872   3.89128
    R2        1.85020  -0.00155   0.00000   0.00043   0.00043   1.85063
    A1        1.54460   0.01344   0.00000  -0.01473  -0.01473   1.52987
         Item               Value     Threshold  Converged?
 Maximum Force            0.059494     0.000450     NO 
 RMS     Force            0.035225     0.000300     NO 
 Maximum Displacement     0.012448     0.001800     NO 
 RMS     Displacement     0.010409     0.001200     NO 
 Predicted change in Energy= 7.296092D-04
 GradGradGradGradGradGradGradGradGradGradGradGradGradGradGradGradGradGrad

                          Input orientation:                          
 ---------------------------------------------------------------------
 Center     Atomic      Atomic             Coordinates (Angstroms)
 Number     Number       Type             X           Y           Z
 ---------------------------------------------------------------------
      1          8           0        2.063524    3.935607   -0.022725
      2         17           0        2.082600    3.928757   -2.081802
      3          1           0        1.256761    3.382348   -0.068427
 ---------------------------------------------------------------------
                    Distance matrix (angstroms):
                    1          2          3
     1  O    0.000000
     2  Cl   2.059177   0.000000
     3  H    0.979311   2.243715   0.000000
 Stoichiometry    ClHO
 Framework group  CS[SG(ClHO)]
 Deg. of freedom     3
 Full point group                 CS      NOp   2
 Largest Abelian subgroup         CS      NOp   2
 Largest concise Abelian subgroup C1      NOp   1
                         Standard orientation:                         
 ---------------------------------------------------------------------
 Center     Atomic      Atomic             Coordinates (Angstroms)
 Number     Number       Type             X           Y           Z
 ---------------------------------------------------------------------
      1          8           0        0.037634    1.347926   -0.000000
      2         17           0        0.037634   -0.711251    0.000000
      3          1           0       -0.940857    1.307860    0.000000
 ---------------------------------------------------------------------
 Rotational constants (GHZ):         555.9034417          10.4340149          10.2417820
 Standard basis: SVP (5D, 7F)
 There are    29 symmetry adapted cartesian basis functions of A'  symmetry.
 There are    10 symmetry adapted cartesian basis functions of A"  symmetry.
 There are    27 symmetry adapted basis functions of A'  symmetry.
 There are    10 symmetry adapted basis functions of A"  symmetry.
    37 basis functions,    69 primitive gaussians,    39 cartesian basis functions
    13 alpha electrons       13 beta electrons
       nuclear repulsion energy        43.2822187747 Hartrees.
 NAtoms=    3 NActive=    3 NUniq=    3 SFac= 1.00D+00 NAtFMM=   60 NAOKFM=F Big=F
 Integral buffers will be    131072 words long.
 Raffenetti 2 integral format.
 Two-electron integral symmetry is turned on.
 Nuclear repulsion after empirical dispersion term =       43.2806029214 Hartrees.
 One-electron integrals computed using PRISM.
 NBasis=    37 RedAO= T EigKep=  4.87D-02  NBF=    27    10
 NBsUse=    37 1.00D-06 EigRej= -1.00D+00 NBFU=    27    10
 Initial guess from the checkpoint file:  "/tmp/Gau-6213.chk"
 B after Tr=     0.000000   -0.000000   -0.000000
         Rot=    1.000000    0.000000   -0.000000   -0.000200 Ang=  -0.02 deg.
 Initial guess orbital symmetries:
       Occupied  (A') (A') (A') (A') (A') (A") (A') (A') (A') (A')
                 (A") (A') (A")
       Virtual   (A') (A') (A') (A') (A') (A") (A') (A') (A") (A')
                 (A") (A') (A') (A") (A') (A') (A") (A') (A') (A")
                 (A') (A') (A") (A')
 Keep R1 ints in memory in symmetry-blocked form, NReq=7153137.
 Requested convergence on RMS density matrix=1.00D-08 within 128 cycles.
 Requested convergence on MAX density matrix=1.00D-06.
 Requested convergence on             energy=1.00D-06.
 No special actions if energy rises.
 SCF Done:  E(RB3LYP) =  -535.733007996     A.U. after    9 cycles
            NFock=  9  Conv=0.54D-08     -V/T= 2.0031
 Calling FoFJK, ICntrl=      2127 FMM=F ISym2X=1 I1Cent= 0 IOpClX= 0 NMat=1 NMatS=1 NMatT=0.
 ***** Axes restored to original set *****
 -------------------------------------------------------------------
 Center     Atomic                   Forces (Hartrees/Bohr)
 Number     Number              X              Y              Z
 -------------------------------------------------------------------
      1        8          -0.003721110   -0.003203769   -0.067592728
      2       17           0.002667481    0.002401782    0.059322983
      3        1           0.001053630    0.000801987    0.008269746
 -------------------------------------------------------------------
 Cartesian Forces:  Max     0.067592728 RMS     0.030175652

 GradGradGradGradGradGradGradGradGradGradGradGradGradGradGradGradGradGrad
 Berny optimization.
 FormGI is forming the generalized inverse of G from B-inverse, IUseBI=4.
 Internal  Forces:  Max     0.059303311 RMS     0.035355577
 Search for a saddle point.
 Step number   5 out of a maximum of  100
 All quantities printed in internal units (Hartrees-Bohrs-Radians)
 Swapping is turned off.
 Update second derivatives using D2CorX and points    2    3    4    5
 The second derivative matrix:
                          R1        R2        A1
           R1           0.02999
           R2          -0.01408   0.57147
           A1           0.03026  -0.00206   0.13590
 ITU=  0  0  0  0
     Eigenvalues ---    0.02164   0.14386   0.57185
 Eigenvectors required to have negative eigenvalues:
                          R1        A1        R2
   1                    0.96651  -0.25551   0.02380
 RFO step:  Lambda0=7.300408982D-02 Lambda=-1.77452785D-06.
 Linear search not attempted -- option 19 set.
 Iteration  1 RMS(Cart)=  0.00300455 RMS(Int)=  0.00000689
 Iteration  2 RMS(Cart)=  0.00000497 RMS(Int)=  0.00000000
 Iteration  3 RMS(Cart)=  0.00000000 RMS(Int)=  0.00000000
 ClnCor:  largest displacement from symmetrization is 4.20D-15 for atom     3.
 Variable       Old X    -DE/DX   Delta X   Delta X   Delta X     New X
                                 (Linear)    (Quad)   (Total)
    R1        3.89128  -0.05930   0.00000   0.00246   0.00246   3.89374
    R2        1.85063  -0.00171   0.00000  -0.00039  -0.00039   1.85024
    A1        1.52987   0.01517   0.00000  -0.00417  -0.00417   1.52570
         Item               Value     Threshold  Converged?
 Maximum Force            0.059303     0.000450     NO 
 RMS     Force            0.035356     0.000300     NO 
 Maximum Displacement     0.003585     0.001800     NO 
 RMS     Displacement     0.003006     0.001200     NO 
 Predicted change in Energy= 2.095493D-04
 GradGradGradGradGradGradGradGradGradGradGradGradGradGradGradGradGradGrad

                          Input orientation:                          
 ---------------------------------------------------------------------
 Center     Atomic      Atomic             Coordinates (Angstroms)
 Number     Number       Type             X           Y           Z
 ---------------------------------------------------------------------
      1          8           0        2.063740    3.935771   -0.021122
      2         17           0        2.081842    3.928241   -2.081508
      3          1           0        1.257303    3.382701   -0.070324
 ---------------------------------------------------------------------
                    Distance matrix (angstroms):
                    1          2          3
     1  O    0.000000
     2  Cl   2.060479   0.000000
     3  H    0.979106   2.241058   0.000000
 Stoichiometry    ClHO
 Framework group  CS[SG(ClHO)]
 Deg. of freedom     3
 Full point group                 CS      NOp   2
 Largest Abelian subgroup         CS      NOp   2
 Largest concise Abelian subgroup C1      NOp   1
                         Standard orientation:                         
 ---------------------------------------------------------------------
 Center     Atomic      Atomic             Coordinates (Angstroms)
 Number     Number       Type             X           Y           Z
 ---------------------------------------------------------------------
      1          8           0        0.037620    1.348934    0.000000
      2         17           0        0.037620   -0.711545   -0.000000
      3          1           0       -0.940491    1.304798   -0.000000
 ---------------------------------------------------------------------
 Rotational constants (GHZ):         556.2073544          10.4232497          10.2315126
 Standard basis: SVP (5D, 7F)
 There are    29 symmetry adapted cartesian basis functions of A'  symmetry.
 There are    10 symmetry adapted cartesian basis functions of A"  symmetry.
 There are    27 symmetry adapted basis functions of A'  symmetry.
 There are    10 symmetry adapted basis functions of A"  symmetry.
    37 basis functions,    69 primitive gaussians,    39 cartesian basis functions
    13 alpha electrons       13 beta electrons
       nuclear repulsion energy        43.2657922802 Hartrees.
 NAtoms=    3 NActive=    3 NUniq=    3 SFac= 1.00D+00 NAtFMM=   60 NAOKFM=F Big=F
 Integral buffers will be    131072 words long.
 Raffenetti 2 integral format.
 Two-electron integral symmetry is turned on.
 Nuclear repulsion after empirical dispersion term =       43.2641759007 Hartrees.
 One-electron integrals computed using PRISM.
 NBasis=    37 RedAO= T EigKep=  4.87D-02  NBF=    27    10
 NBsUse=    37 1.00D-06 EigRej= -1.00D+00 NBFU=    27    10
 Initial guess from the checkpoint file:  "/tmp/Gau-6213.chk"
 B after Tr=    -0.000000   -0.000000   -0.000000
         Rot=    1.000000   -0.000000    0.000000   -0.000048 Ang=  -0.01 deg.
 Initial guess orbital symmetries:
       Occupied  (A') (A') (A') (A') (A') (A") (A') (A') (A') (A')
                 (A") (A') (A")
       Virtual   (A') (A') (A') (A') (A') (A") (A') (A') (A") (A')
                 (A") (A') (A') (A") (A') (A') (A") (A') (A') (A")
                 (A') (A') (A") (A')
 Keep R1 ints in memory in symmetry-blocked form, NReq=7153137.
 Requested convergence on RMS density matrix=1.00D-08 within 128 cycles.
 Requested convergence on MAX density matrix=1.00D-06.
 Requested convergence on             energy=1.00D-06.
 No special actions if energy rises.
 SCF Done:  E(RB3LYP) =  -535.732798466     A.U. after    8 cycles
            NFock=  8  Conv=0.44D-08     -V/T= 2.0031
 Calling FoFJK, ICntrl=      2127 FMM=F ISym2X=1 I1Cent= 0 IOpClX= 0 NMat=1 NMatS=1 NMatT=0.
 ***** Axes restored to original set *****
 -------------------------------------------------------------------
 Center     Atomic                   Forces (Hartrees/Bohr)
 Number     Number              X              Y              Z
 -------------------------------------------------------------------
      1        8          -0.003643760   -0.003152745   -0.067797276
      2       17           0.002798247    0.002490845    0.059266985
      3        1           0.000845514    0.000661901    0.008530291
 -------------------------------------------------------------------
 Cartesian Forces:  Max     0.067797276 RMS     0.030221803

 GradGradGradGradGradGradGradGradGradGradGradGradGradGradGradGradGradGrad
 Berny optimization.
 FormGI is forming the generalized inverse of G from B-inverse, IUseBI=4.
 Internal  Forces:  Max     0.059248731 RMS     0.035393177
 Search for a saddle point.
 Step number   6 out of a maximum of  100
 All quantities printed in internal units (Hartrees-Bohrs-Radians)
 Swapping is turned off.
 Second derivative matrix not updated -- analytic derivatives used.
 The second derivative matrix:
                          R1        R2        A1
           R1           0.02999
           R2          -0.01408   0.57147
           A1           0.03026  -0.00206   0.13590
 ITU=  0  0  0  0
     Eigenvalues ---    0.02164   0.14386   0.57185
 Eigenvectors required to have negative eigenvalues:
                          R1        A1        R2
   1                    0.96651  -0.25551   0.02380
 RFO step:  Lambda0=7.307062023D-02 Lambda= 0.00000000D+00.
 Linear search not attempted -- option 19 set.
 Iteration  1 RMS(Cart)=  0.00004073 RMS(Int)=  0.00000000
 Iteration  2 RMS(Cart)=  0.00000000 RMS(Int)=  0.00000000
 ClnCor:  largest displacement from symmetrization is 7.33D-16 for atom     3.
 Variable       Old X    -DE/DX   Delta X   Delta X   Delta X     New X
                                 (Linear)    (Quad)   (Total)
    R1        3.89374  -0.05925   0.00000   0.00007   0.00007   3.89381
    R2        1.85024  -0.00150   0.00000  -0.00007  -0.00007   1.85017
    A1        1.52570   0.01566   0.00000  -0.00002  -0.00002   1.52569
         Item               Value     Threshold  Converged?
 Maximum Force            0.059249     0.000450     NO 
 RMS     Force            0.035393     0.000300     NO 
 Maximum Displacement     0.000037     0.001800     YES
 RMS     Displacement     0.000041     0.001200     YES
 Predicted change in Energy= 4.306711D-06
 GradGradGradGradGradGradGradGradGradGradGradGradGradGradGradGradGradGrad

                          Input orientation:                          
 ---------------------------------------------------------------------
 Center     Atomic      Atomic             Coordinates (Angstroms)
 Number     Number       Type             X           Y           Z
 ---------------------------------------------------------------------
      1          8           0        2.063725    3.935761   -0.021103
      2         17           0        2.081841    3.928240   -2.081526
      3          1           0        1.257319    3.382712   -0.070326
 ---------------------------------------------------------------------
                    Distance matrix (angstroms):
                    1          2          3
     1  O    0.000000
     2  Cl   2.060516   0.000000
     3  H    0.979069   2.241063   0.000000
 Stoichiometry    ClHO
 Framework group  CS[SG(ClHO)]
 Deg. of freedom     3
 Full point group                 CS      NOp   2
 Largest Abelian subgroup         CS      NOp   2
 Largest concise Abelian subgroup C1      NOp   1
                         Standard orientation:                         
 ---------------------------------------------------------------------
 Center     Atomic      Atomic             Coordinates (Angstroms)
 Number     Number       Type             X           Y           Z
 ---------------------------------------------------------------------
      1          8           0        0.037618    1.348959    0.000000
      2         17           0        0.037618   -0.711558   -0.000000
      3          1           0       -0.940455    1.304809    0.000000
 ---------------------------------------------------------------------
 Rotational constants (GHZ):         556.2488729          10.4228815          10.2311718
 Standard basis: SVP (5D, 7F)
 There are    29 symmetry adapted cartesian basis functions of A'  symmetry.
 There are    10 symmetry adapted cartesian basis functions of A"  symmetry.
 There are    27 symmetry adapted basis functions of A'  symmetry.
 There are    10 symmetry adapted basis functions of A"  symmetry.
    37 basis functions,    69 primitive gaussians,    39 cartesian basis functions
    13 alpha electrons       13 beta electrons
       nuclear repulsion energy        43.2653118736 Hartrees.
 NAtoms=    3 NActive=    3 NUniq=    3 SFac= 1.00D+00 NAtFMM=   60 NAOKFM=F Big=F
 Integral buffers will be    131072 words long.
 Raffenetti 2 integral format.
 Two-electron integral symmetry is turned on.
 Nuclear repulsion after empirical dispersion term =       43.2636954871 Hartrees.
 One-electron integrals computed using PRISM.
 NBasis=    37 RedAO= T EigKep=  4.87D-02  NBF=    27    10
 NBsUse=    37 1.00D-06 EigRej= -1.00D+00 NBFU=    27    10
 Initial guess from the checkpoint file:  "/tmp/Gau-6213.chk"
 B after Tr=     0.000000   -0.000000    0.000000
         Rot=    1.000000   -0.000000    0.000000    0.000001 Ang=   0.00 deg.
 Initial guess orbital symmetries:
       Occupied  (A') (A') (A') (A') (A') (A") (A') (A') (A') (A')
                 (A") (A') (A")
       Virtual   (A') (A') (A') (A') (A') (A") (A') (A') (A") (A')
                 (A") (A') (A') (A") (A') (A') (A") (A') (A') (A")
                 (A') (A') (A") (A')
 Keep R1 ints in memory in symmetry-blocked form, NReq=7153137.
 Requested convergence on RMS density matrix=1.00D-08 within 128 cycles.
 Requested convergence on MAX density matrix=1.00D-06.
 Requested convergence on             energy=1.00D-06.
 No special actions if energy rises.
 SCF Done:  E(RB3LYP) =  -535.732794160     A.U. after    5 cycles
            NFock=  5  Conv=0.45D-08     -V/T= 2.0031
 Calling FoFJK, ICntrl=      2127 FMM=F ISym2X=1 I1Cent= 0 IOpClX= 0 NMat=1 NMatS=1 NMatT=0.
 ***** Axes restored to original set *****
 -------------------------------------------------------------------
 Center     Atomic                   Forces (Hartrees/Bohr)
 Number     Number              X              Y              Z
 -------------------------------------------------------------------
      1        8          -0.003614916   -0.003132989   -0.067798174
      2       17           0.002797698    0.002490492    0.059269430
      3        1           0.000817218    0.000642497    0.008528744
 -------------------------------------------------------------------
 Cartesian Forces:  Max     0.067798174 RMS     0.030221756

 GradGradGradGradGradGradGradGradGradGradGradGradGradGradGradGradGradGrad
 Berny optimization.
 FormGI is forming the generalized inverse of G from B-inverse, IUseBI=4.
 Internal  Forces:  Max     0.059251148 RMS     0.035394003
 Search for a saddle point.
 Step number   7 out of a maximum of  100
 All quantities printed in internal units (Hartrees-Bohrs-Radians)
 Swapping is turned off.
 Update second derivatives using D2CorX and points    4    5    7
 The second derivative matrix:
                          R1        R2        A1
           R1           0.02884
           R2          -0.00921   0.56990
           A1           0.03092  -0.00992   0.13685
 ITU=  0  0  0  0
     Eigenvalues ---    0.02055   0.14474   0.57031
 Eigenvectors required to have negative eigenvalues:
                          R1        A1        R2
   1                    0.96662  -0.25596   0.01158
 RFO step:  Lambda0=7.242831500D-02 Lambda=-1.01181569D-06.
 Linear search not attempted -- option 19 set.
 Iteration  1 RMS(Cart)=  0.00083070 RMS(Int)=  0.00000041
 Iteration  2 RMS(Cart)=  0.00000042 RMS(Int)=  0.00000000
 ClnCor:  largest displacement from symmetrization is 1.11D-15 for atom     3.
 Variable       Old X    -DE/DX   Delta X   Delta X   Delta X     New X
                                 (Linear)    (Quad)   (Total)
    R1        3.89381  -0.05925   0.00000   0.00126   0.00126   3.89507
    R2        1.85017  -0.00146   0.00000  -0.00131  -0.00131   1.84886
    A1        1.52569   0.01566   0.00000  -0.00062  -0.00062   1.52507
         Item               Value     Threshold  Converged?
 Maximum Force            0.059251     0.000450     NO 
 RMS     Force            0.035394     0.000300     NO 
 Maximum Displacement     0.000836     0.001800     YES
 RMS     Displacement     0.000831     0.001200     YES
 Predicted change in Energy= 8.285674D-05
 GradGradGradGradGradGradGradGradGradGradGradGradGradGradGradGradGradGrad

                          Input orientation:                          
 ---------------------------------------------------------------------
 Center     Atomic      Atomic             Coordinates (Angstroms)
 Number     Number       Type             X           Y           Z
 ---------------------------------------------------------------------
      1          8           0        2.063469    3.935589   -0.020660
      2         17           0        2.081749    3.928174   -2.081748
      3          1           0        1.257668    3.382949   -0.070546
 ---------------------------------------------------------------------
                    Distance matrix (angstroms):
                    1          2          3
     1  O    0.000000
     2  Cl   2.061182   0.000000
     3  H    0.978374   2.240829   0.000000
 Stoichiometry    ClHO
 Framework group  CS[SG(ClHO)]
 Deg. of freedom     3
 Full point group                 CS      NOp   2
 Largest Abelian subgroup         CS      NOp   2
 Largest concise Abelian subgroup C1      NOp   1
                         Standard orientation:                         
 ---------------------------------------------------------------------
 Center     Atomic      Atomic             Coordinates (Angstroms)
 Number     Number       Type             X           Y           Z
 ---------------------------------------------------------------------
      1          8           0        0.037590    1.349416   -0.000000
      2         17           0        0.037590   -0.711766    0.000000
      3          1           0       -0.939760    1.304691   -0.000000
 ---------------------------------------------------------------------
 Rotational constants (GHZ):         557.0531410          10.4165005          10.2252947
 Standard basis: SVP (5D, 7F)
 There are    29 symmetry adapted cartesian basis functions of A'  symmetry.
 There are    10 symmetry adapted cartesian basis functions of A"  symmetry.
 There are    27 symmetry adapted basis functions of A'  symmetry.
 There are    10 symmetry adapted basis functions of A"  symmetry.
    37 basis functions,    69 primitive gaussians,    39 cartesian basis functions
    13 alpha electrons       13 beta electrons
       nuclear repulsion energy        43.2575279613 Hartrees.
 NAtoms=    3 NActive=    3 NUniq=    3 SFac= 1.00D+00 NAtFMM=   60 NAOKFM=F Big=F
 Integral buffers will be    131072 words long.
 Raffenetti 2 integral format.
 Two-electron integral symmetry is turned on.
 Nuclear repulsion after empirical dispersion term =       43.2559114231 Hartrees.
 One-electron integrals computed using PRISM.
 NBasis=    37 RedAO= T EigKep=  4.87D-02  NBF=    27    10
 NBsUse=    37 1.00D-06 EigRej= -1.00D+00 NBFU=    27    10
 Initial guess from the checkpoint file:  "/tmp/Gau-6213.chk"
 B after Tr=    -0.000000    0.000000   -0.000000
         Rot=    1.000000    0.000000    0.000000    0.000016 Ang=   0.00 deg.
 Initial guess orbital symmetries:
       Occupied  (A') (A') (A') (A') (A') (A") (A') (A') (A') (A')
                 (A") (A') (A")
       Virtual   (A') (A') (A') (A') (A') (A") (A') (A') (A") (A')
                 (A") (A') (A') (A") (A') (A') (A") (A') (A') (A")
                 (A') (A') (A") (A')
 Keep R1 ints in memory in symmetry-blocked form, NReq=7153137.
 Requested convergence on RMS density matrix=1.00D-08 within 128 cycles.
 Requested convergence on MAX density matrix=1.00D-06.
 Requested convergence on             energy=1.00D-06.
 No special actions if energy rises.
 SCF Done:  E(RB3LYP) =  -535.732711363     A.U. after    8 cycles
            NFock=  8  Conv=0.26D-08     -V/T= 2.0031
 Calling FoFJK, ICntrl=      2127 FMM=F ISym2X=1 I1Cent= 0 IOpClX= 0 NMat=1 NMatS=1 NMatT=0.
 ***** Axes restored to original set *****
 -------------------------------------------------------------------
 Center     Atomic                   Forces (Hartrees/Bohr)
 Number     Number              X              Y              Z
 -------------------------------------------------------------------
      1        8          -0.003071011   -0.002760561   -0.067826297
      2       17           0.002800766    0.002492904    0.059301465
      3        1           0.000270245    0.000267657    0.008524832
 -------------------------------------------------------------------
 Cartesian Forces:  Max     0.067826297 RMS     0.030223241

 GradGradGradGradGradGradGradGradGradGradGradGradGradGradGradGradGradGrad
 Berny optimization.
 FormGI is forming the generalized inverse of G from B-inverse, IUseBI=4.
 Internal  Forces:  Max     0.059282783 RMS     0.035410868
 Search for a saddle point.
 Step number   8 out of a maximum of  100
 All quantities printed in internal units (Hartrees-Bohrs-Radians)
 Swapping is turned off.
 Update second derivatives using D2CorX and points    5    6    7    8
 The second derivative matrix:
                          R1        R2        A1
           R1           0.04537
           R2           0.01135   0.52030
           A1           0.01690  -0.02177   0.14832
 ITU=  0  0  0  0
     Eigenvalues ---    0.04221   0.14998   0.52180
 Eigenvectors required to have negative eigenvalues:
                          R1        A1        R2
   1                    0.98608  -0.16341  -0.03086
 RFO step:  Lambda0=8.565258772D-02 Lambda=-2.29889765D-04.
 Linear search not attempted -- option 19 set.
 Iteration  1 RMS(Cart)=  0.03801659 RMS(Int)=  0.00028964
 Iteration  2 RMS(Cart)=  0.00020385 RMS(Int)=  0.00000000
 Iteration  3 RMS(Cart)=  0.00000000 RMS(Int)=  0.00000000
 ClnCor:  largest displacement from symmetrization is 3.41D-15 for atom     3.
 Variable       Old X    -DE/DX   Delta X   Delta X   Delta X     New X
                                 (Linear)    (Quad)   (Total)
    R1        3.89507  -0.05928   0.00000   0.04361   0.04361   3.93868
    R2        1.84886  -0.00081   0.00000  -0.00491  -0.00491   1.84394
    A1        1.52507   0.01571   0.00000   0.03117   0.03117   1.55624
         Item               Value     Threshold  Converged?
 Maximum Force            0.059283     0.000450     NO 
 RMS     Force            0.035411     0.000300     NO 
 Maximum Displacement     0.043036     0.001800     NO 
 RMS     Displacement     0.037991     0.001200     NO 
 Predicted change in Energy= 2.237377D-03
 GradGradGradGradGradGradGradGradGradGradGradGradGradGradGradGradGradGrad

                          Input orientation:                          
 ---------------------------------------------------------------------
 Center     Atomic      Atomic             Coordinates (Angstroms)
 Number     Number       Type             X           Y           Z
 ---------------------------------------------------------------------
      1          8           0        2.058241    3.932008   -0.020517
      2         17           0        2.090894    3.934221   -2.104521
      3          1           0        1.253751    3.380483   -0.047916
 ---------------------------------------------------------------------
                    Distance matrix (angstroms):
                    1          2          3
     1  O    0.000000
     2  Cl   2.084261   0.000000
     3  H    0.975774   2.288462   0.000000
 Stoichiometry    ClHO
 Framework group  CS[SG(ClHO)]
 Deg. of freedom     3
 Full point group                 CS      NOp   2
 Largest Abelian subgroup         CS      NOp   2
 Largest concise Abelian subgroup C1      NOp   1
                         Standard orientation:                         
 ---------------------------------------------------------------------
 Center     Atomic      Atomic             Coordinates (Angstroms)
 Number     Number       Type             X           Y           Z
 ---------------------------------------------------------------------
      1          8           0        0.037526    1.363333    0.000000
      2         17           0        0.037526   -0.720929   -0.000000
      3          1           0       -0.938144    1.349126    0.000000
 ---------------------------------------------------------------------
 Rotational constants (GHZ):         559.9483175          10.1693627           9.9879687
 Standard basis: SVP (5D, 7F)
 There are    29 symmetry adapted cartesian basis functions of A'  symmetry.
 There are    10 symmetry adapted cartesian basis functions of A"  symmetry.
 There are    27 symmetry adapted basis functions of A'  symmetry.
 There are    10 symmetry adapted basis functions of A"  symmetry.
    37 basis functions,    69 primitive gaussians,    39 cartesian basis functions
    13 alpha electrons       13 beta electrons
       nuclear repulsion energy        42.7988643228 Hartrees.
 NAtoms=    3 NActive=    3 NUniq=    3 SFac= 1.00D+00 NAtFMM=   60 NAOKFM=F Big=F
 Integral buffers will be    131072 words long.
 Raffenetti 2 integral format.
 Two-electron integral symmetry is turned on.
 Nuclear repulsion after empirical dispersion term =       42.7972458690 Hartrees.
 One-electron integrals computed using PRISM.
 NBasis=    37 RedAO= T EigKep=  4.92D-02  NBF=    27    10
 NBsUse=    37 1.00D-06 EigRej= -1.00D+00 NBFU=    27    10
 Initial guess from the checkpoint file:  "/tmp/Gau-6213.chk"
 B after Tr=     0.000000    0.000000   -0.000000
         Rot=    1.000000   -0.000000   -0.000000    0.000873 Ang=   0.10 deg.
 Initial guess orbital symmetries:
       Occupied  (A') (A') (A') (A') (A') (A") (A') (A') (A') (A')
                 (A") (A') (A")
       Virtual   (A') (A') (A') (A') (A') (A") (A') (A') (A") (A')
                 (A") (A') (A') (A") (A') (A') (A") (A') (A') (A")
                 (A') (A') (A") (A')
 ExpMin= 1.22D-01 ExpMax= 1.04D+04 ExpMxC= 1.57D+03 IAcc=2 IRadAn=         4 AccDes= 0.00D+00
 Harris functional with IExCor=  402 and IRadAn=       4 diagonalized for initial guess.
 HarFok:  IExCor=  402 AccDes= 0.00D+00 IRadAn=         4 IDoV= 1 UseB2=F ITyADJ=14
 ICtDFT=  3500011 ScaDFX=  1.000000  1.000000  1.000000  1.000000
 FoFCou: FMM=F IPFlag=           0 FMFlag=      100000 FMFlg1=           0
         NFxFlg=           0 DoJE=T BraDBF=F KetDBF=T FulRan=T
         wScrn=  0.000000 ICntrl=       500 IOpCl=  0 I1Cent=   200000004 NGrid=           0
         NMat0=    1 NMatS0=      1 NMatT0=    0 NMatD0=    1 NMtDS0=    0 NMtDT0=    0
 Petite list used in FoFCou.
 Keep R1 ints in memory in symmetry-blocked form, NReq=7153137.
 Requested convergence on RMS density matrix=1.00D-08 within 128 cycles.
 Requested convergence on MAX density matrix=1.00D-06.
 Requested convergence on             energy=1.00D-06.
 No special actions if energy rises.
 Integral accuracy reduced to 1.0D-05 until final iterations.
 Initial convergence to 1.0D-05 achieved.  Increase integral accuracy.
 SCF Done:  E(RB3LYP) =  -535.730468557     A.U. after   11 cycles
            NFock= 11  Conv=0.72D-08     -V/T= 2.0031
 Calling FoFJK, ICntrl=      2127 FMM=F ISym2X=1 I1Cent= 0 IOpClX= 0 NMat=1 NMatS=1 NMatT=0.
 ***** Axes restored to original set *****
 -------------------------------------------------------------------
 Center     Atomic                   Forces (Hartrees/Bohr)
 Number     Number              X              Y              Z
 -------------------------------------------------------------------
      1        8           0.000577988   -0.000253737   -0.067162315
      2       17           0.001140674    0.001379136    0.061758846
      3        1          -0.001718663   -0.001125400    0.005403469
 -------------------------------------------------------------------
 Cartesian Forces:  Max     0.067162315 RMS     0.030481235

 GradGradGradGradGradGradGradGradGradGradGradGradGradGradGradGradGradGrad
 Berny optimization.
 FormGI is forming the generalized inverse of G from B-inverse, IUseBI=4.
 Internal  Forces:  Max     0.061731934 RMS     0.036128371
 Search for a saddle point.
 Step number   9 out of a maximum of  100
 All quantities printed in internal units (Hartrees-Bohrs-Radians)
 Swapping is turned off.
 Update second derivatives using D2CorX and points    6    7    8    9
 The second derivative matrix:
                          R1        R2        A1
           R1           0.04449
           R2           0.01180   0.52025
           A1           0.01819  -0.02145   0.15212
 ITU=  0  0  0  0
     Eigenvalues ---    0.04102   0.15410   0.52173
 Eigenvectors required to have negative eigenvalues:
                          R1        A1        R2
   1                    0.98537  -0.16742  -0.03175
 RFO step:  Lambda0=8.635899627D-02 Lambda=-1.15371407D-06.
 Linear search not attempted -- option 19 set.
 Iteration  1 RMS(Cart)=  0.00223269 RMS(Int)=  0.00000395
 Iteration  2 RMS(Cart)=  0.00000284 RMS(Int)=  0.00000000
 Iteration  3 RMS(Cart)=  0.00000000 RMS(Int)=  0.00000000
 ClnCor:  largest displacement from symmetrization is 1.09D-15 for atom     2.
 Variable       Old X    -DE/DX   Delta X   Delta X   Delta X     New X
                                 (Linear)    (Quad)   (Total)
    R1        3.93868  -0.06173   0.00000   0.00223   0.00223   3.94091
    R2        1.84394   0.00190   0.00000  -0.00035  -0.00035   1.84359
    A1        1.55624   0.01007   0.00000  -0.00313  -0.00313   1.55310
         Item               Value     Threshold  Converged?
 Maximum Force            0.061732     0.000450     NO 
 RMS     Force            0.036128     0.000300     NO 
 Maximum Displacement     0.002590     0.001800     NO 
 RMS     Displacement     0.002233     0.001200     NO 
 Predicted change in Energy= 1.703837D-04
 GradGradGradGradGradGradGradGradGradGradGradGradGradGradGradGradGradGrad

                          Input orientation:                          
 ---------------------------------------------------------------------
 Center     Atomic      Atomic             Coordinates (Angstroms)
 Number     Number       Type             X           Y           Z
 ---------------------------------------------------------------------
      1          8           0        2.058393    3.932125   -0.019237
      2         17           0        2.090358    3.933855   -2.104431
      3          1           0        1.254133    3.380732   -0.049286
 ---------------------------------------------------------------------
                    Distance matrix (angstroms):
                    1          2          3
     1  O    0.000000
     2  Cl   2.085439   0.000000
     3  H    0.975588   2.286665   0.000000
 Stoichiometry    ClHO
 Framework group  CS[SG(ClHO)]
 Deg. of freedom     3
 Full point group                 CS      NOp   2
 Largest Abelian subgroup         CS      NOp   2
 Largest concise Abelian subgroup C1      NOp   1
                         Standard orientation:                         
 ---------------------------------------------------------------------
 Center     Atomic      Atomic             Coordinates (Angstroms)
 Number     Number       Type             X           Y           Z
 ---------------------------------------------------------------------
      1          8           0        0.037517    1.364220    0.000000
      2         17           0        0.037517   -0.721219   -0.000000
      3          1           0       -0.937918    1.346959    0.000000
 ---------------------------------------------------------------------
 Rotational constants (GHZ):         560.1197256          10.1596608           9.9786641
 Standard basis: SVP (5D, 7F)
 There are    29 symmetry adapted cartesian basis functions of A'  symmetry.
 There are    10 symmetry adapted cartesian basis functions of A"  symmetry.
 There are    27 symmetry adapted basis functions of A'  symmetry.
 There are    10 symmetry adapted basis functions of A"  symmetry.
    37 basis functions,    69 primitive gaussians,    39 cartesian basis functions
    13 alpha electrons       13 beta electrons
       nuclear repulsion energy        42.7832730164 Hartrees.
 NAtoms=    3 NActive=    3 NUniq=    3 SFac= 1.00D+00 NAtFMM=   60 NAOKFM=F Big=F
 Integral buffers will be    131072 words long.
 Raffenetti 2 integral format.
 Two-electron integral symmetry is turned on.
 Nuclear repulsion after empirical dispersion term =       42.7816540231 Hartrees.
 One-electron integrals computed using PRISM.
 NBasis=    37 RedAO= T EigKep=  4.92D-02  NBF=    27    10
 NBsUse=    37 1.00D-06 EigRej= -1.00D+00 NBFU=    27    10
 Initial guess from the checkpoint file:  "/tmp/Gau-6213.chk"
 B after Tr=    -0.000000   -0.000000    0.000000
         Rot=    1.000000   -0.000000    0.000000   -0.000034 Ang=  -0.00 deg.
 Initial guess orbital symmetries:
       Occupied  (A') (A') (A') (A') (A') (A") (A') (A') (A') (A')
                 (A") (A') (A")
       Virtual   (A') (A') (A') (A') (A') (A") (A') (A') (A") (A')
                 (A") (A') (A') (A") (A') (A') (A") (A') (A') (A")
                 (A') (A') (A") (A')
 Keep R1 ints in memory in symmetry-blocked form, NReq=7153137.
 Requested convergence on RMS density matrix=1.00D-08 within 128 cycles.
 Requested convergence on MAX density matrix=1.00D-06.
 Requested convergence on             energy=1.00D-06.
 No special actions if energy rises.
 SCF Done:  E(RB3LYP) =  -535.730298355     A.U. after    8 cycles
            NFock=  8  Conv=0.38D-08     -V/T= 2.0031
 Calling FoFJK, ICntrl=      2127 FMM=F ISym2X=1 I1Cent= 0 IOpClX= 0 NMat=1 NMatS=1 NMatT=0.
 ***** Axes restored to original set *****
 -------------------------------------------------------------------
 Center     Atomic                   Forces (Hartrees/Bohr)
 Number     Number              X              Y              Z
 -------------------------------------------------------------------
      1        8           0.000658514   -0.000200013   -0.067312678
      2       17           0.001233923    0.001442758    0.061730479
      3        1          -0.001892437   -0.001242746    0.005582198
 -------------------------------------------------------------------
 Cartesian Forces:  Max     0.067312678 RMS     0.030517778

 GradGradGradGradGradGradGradGradGradGradGradGradGradGradGradGradGradGrad
 Berny optimization.
 FormGI is forming the generalized inverse of G from B-inverse, IUseBI=4.
 Internal  Forces:  Max     0.061703123 RMS     0.036148409
 Search for a saddle point.
 Step number  10 out of a maximum of  100
 All quantities printed in internal units (Hartrees-Bohrs-Radians)
 Swapping is turned off.
 Update second derivatives using D2CorX and points    7    8    9   10
 The second derivative matrix:
                          R1        R2        A1
           R1           0.03236
           R2          -0.00446   0.52558
           A1           0.03268  -0.00166   0.13473
 ITU=  0  0  0  0
     Eigenvalues ---    0.02279   0.14425   0.52563
 Eigenvectors required to have negative eigenvalues:
                          R1        A1        R2
   1                    0.95992  -0.28016   0.00759
 RFO step:  Lambda0=7.456346787D-02 Lambda=-3.78415952D-04.
 Linear search not attempted -- option 19 set.
 Iteration  1 RMS(Cart)=  0.04376381 RMS(Int)=  0.00147153
 Iteration  2 RMS(Cart)=  0.00117246 RMS(Int)=  0.00000048
 Iteration  3 RMS(Cart)=  0.00000059 RMS(Int)=  0.00000000
 ClnCor:  largest displacement from symmetrization is 4.31D-15 for atom     3.
 Variable       Old X    -DE/DX   Delta X   Delta X   Delta X     New X
                                 (Linear)    (Quad)   (Total)
    R1        3.94091  -0.06170   0.00000   0.03436   0.03436   3.97527
    R2        1.84359   0.00209   0.00000   0.00498   0.00498   1.84858
    A1        1.55310   0.01042   0.00000  -0.06243  -0.06243   1.49068
         Item               Value     Threshold  Converged?
 Maximum Force            0.061703     0.000450     NO 
 RMS     Force            0.036148     0.000300     NO 
 Maximum Displacement     0.053518     0.001800     NO 
 RMS     Displacement     0.044209     0.001200     NO 
 Predicted change in Energy= 2.977651D-03
 GradGradGradGradGradGradGradGradGradGradGradGradGradGradGradGradGradGrad

                          Input orientation:                          
 ---------------------------------------------------------------------
 Center     Atomic      Atomic             Coordinates (Angstroms)
 Number     Number       Type             X           Y           Z
 ---------------------------------------------------------------------
      1          8           0        2.063693    3.935983    0.004097
      2         17           0        2.079262    3.926299   -2.099444
      3          1           0        1.259930    3.384430   -0.077607
 ---------------------------------------------------------------------
                    Distance matrix (angstroms):
                    1          2          3
     1  O    0.000000
     2  Cl   2.103622   0.000000
[...]
 Linear search not attempted -- option 19 set.
 Iteration  1 RMS(Cart)=  0.00000002 RMS(Int)=  0.00000000
 ClnCor:  largest displacement from symmetrization is 2.22D-15 for atom     3.
 Variable       Old X    -DE/DX   Delta X   Delta X   Delta X     New X
                                 (Linear)    (Quad)   (Total)
    R1        4.03556  -0.06168   0.00000   0.00000   0.00000   4.03556
    R2        1.84938  -0.00024   0.00000   0.00000   0.00000   1.84938
    A1        1.47958   0.01694   0.00000  -0.00000  -0.00000   1.47958
         Item               Value     Threshold  Converged?
 Maximum Force            0.061683     0.000450     NO 
 RMS     Force            0.036931     0.000300     NO 
 Maximum Displacement     0.000000     0.001800     YES
 RMS     Displacement     0.000000     0.001200     YES
 Predicted change in Energy= 1.522446D-09
 GradGradGradGradGradGradGradGradGradGradGradGradGradGradGradGradGradGrad

                          Input orientation:                          
 ---------------------------------------------------------------------
 Center     Atomic      Atomic             Coordinates (Angstroms)
 Number     Number       Type             X           Y           Z
 ---------------------------------------------------------------------
      1          8           0        2.062826    3.935530    0.018676
      2         17           0        2.080417    3.926923   -2.116763
      3          1           0        1.259642    3.384260   -0.074867
 ---------------------------------------------------------------------
                    Distance matrix (angstroms):
                    1          2          3
     1  O    0.000000
     2  Cl   2.135528   0.000000
     3  H    0.978649   2.266603   0.000000
 Stoichiometry    ClHO
 Framework group  CS[SG(ClHO)]
 Deg. of freedom     3
 Full point group                 CS      NOp   2
 Largest Abelian subgroup         CS      NOp   2
 Largest concise Abelian subgroup C1      NOp   1
                         Standard orientation:                         
 ---------------------------------------------------------------------
 Center     Atomic      Atomic             Coordinates (Angstroms)
 Number     Number       Type             X           Y           Z
 ---------------------------------------------------------------------
      1          8           0        0.037484    1.399736   -0.000000
      2         17           0        0.037484   -0.735793    0.000000
      3          1           0       -0.937096    1.310591   -0.000000
 ---------------------------------------------------------------------
 Rotational constants (GHZ):         558.8987011           9.7268697           9.5604826
 Standard basis: SVP (5D, 7F)
 There are    29 symmetry adapted cartesian basis functions of A'  symmetry.
 There are    10 symmetry adapted cartesian basis functions of A"  symmetry.
 There are    27 symmetry adapted basis functions of A'  symmetry.
 There are    10 symmetry adapted basis functions of A"  symmetry.
    37 basis functions,    69 primitive gaussians,    39 cartesian basis functions
    13 alpha electrons       13 beta electrons
       nuclear repulsion energy        41.9950895882 Hartrees.
 NAtoms=    3 NActive=    3 NUniq=    3 SFac= 1.00D+00 NAtFMM=   60 NAOKFM=F Big=F
 Integral buffers will be    131072 words long.
 Raffenetti 2 integral format.
 Two-electron integral symmetry is turned on.
 Nuclear repulsion after empirical dispersion term =       41.9934491229 Hartrees.
 One-electron integrals computed using PRISM.
 NBasis=    37 RedAO= T EigKep=  5.04D-02  NBF=    27    10
 NBsUse=    37 1.00D-06 EigRej= -1.00D+00 NBFU=    27    10
 Initial guess from the checkpoint file:  "/tmp/Gau-6213.chk"
 B after Tr=    -0.000000    0.000000    0.000000
         Rot=    1.000000   -0.000000    0.000000   -0.000000 Ang=   0.00 deg.
 Initial guess orbital symmetries:
       Occupied  (A') (A') (A') (A') (A') (A") (A') (A') (A') (A')
                 (A") (A') (A")
       Virtual   (A') (A') (A') (A') (A') (A") (A') (A') (A") (A')
                 (A") (A') (A') (A") (A') (A') (A") (A') (A') (A")
                 (A') (A') (A") (A')
 Keep R1 ints in memory in symmetry-blocked form, NReq=7153137.
 Requested convergence on RMS density matrix=1.00D-08 within 128 cycles.
 Requested convergence on MAX density matrix=1.00D-06.
 Requested convergence on             energy=1.00D-06.
 No special actions if energy rises.
 SCF Done:  E(RB3LYP) =  -535.723447065     A.U. after    1 cycles
            NFock=  1  Conv=0.47D-08     -V/T= 2.0032
 Calling FoFJK, ICntrl=      2127 FMM=F ISym2X=1 I1Cent= 0 IOpClX= 0 NMat=1 NMatS=1 NMatT=0.
 ***** Axes restored to original set *****
 -------------------------------------------------------------------
 Center     Atomic                   Forces (Hartrees/Bohr)
 Number     Number              X              Y              Z
 -------------------------------------------------------------------
      1        8          -0.002387271   -0.002321189   -0.070838807
      2       17           0.002954397    0.002621375    0.061699140
      3        1          -0.000567126   -0.000300186    0.009139667
 -------------------------------------------------------------------
 Cartesian Forces:  Max     0.070838807 RMS     0.031509351

 GradGradGradGradGradGradGradGradGradGradGradGradGradGradGradGradGradGrad
 Berny optimization.
 Internal  Forces:  Max     0.061682730 RMS     0.036931176
 Search for a saddle point.
 Step number  99 out of a maximum of  100
 All quantities printed in internal units (Hartrees-Bohrs-Radians)
 Swapping is turned off.
 Update second derivatives using D2CorX and points   99
 The second derivative matrix:
                          R1        R2        A1
           R1           0.02259
           R2          -0.00229   0.49942
           A1           0.03117  -0.00147   0.12750
 ITU=  0  0  0  0
     Eigenvalues ---    0.01402   0.13605   0.49943
 Eigenvectors required to have negative eigenvalues:
                          R1        A1        R2
   1                    0.96429  -0.26480   0.00374
 RFO step:  Lambda0=7.135866366D-02 Lambda= 0.00000000D+00.
 Linear search not attempted -- option 19 set.
 Iteration  1 RMS(Cart)=  0.00000004 RMS(Int)=  0.00000000
 ClnCor:  largest displacement from symmetrization is 1.15D-15 for atom     3.
 Variable       Old X    -DE/DX   Delta X   Delta X   Delta X     New X
                                 (Linear)    (Quad)   (Total)
    R1        4.03556  -0.06168   0.00000   0.00000   0.00000   4.03556
    R2        1.84938  -0.00024   0.00000  -0.00000  -0.00000   1.84938
    A1        1.47958   0.01694   0.00000   0.00000   0.00000   1.47958
         Item               Value     Threshold  Converged?
 Maximum Force            0.061683     0.000450     NO 
 RMS     Force            0.036931     0.000300     NO 
 Maximum Displacement     0.000000     0.001800     YES
 RMS     Displacement     0.000000     0.001200     YES
 Predicted change in Energy= 4.144033D-09
 GradGradGradGradGradGradGradGradGradGradGradGradGradGradGradGradGradGrad

                          Input orientation:                          
 ---------------------------------------------------------------------
 Center     Atomic      Atomic             Coordinates (Angstroms)
 Number     Number       Type             X           Y           Z
 ---------------------------------------------------------------------
      1          8           0        2.062826    3.935529    0.018676
      2         17           0        2.080417    3.926923   -2.116763
      3          1           0        1.259642    3.384260   -0.074867
 ---------------------------------------------------------------------
                    Distance matrix (angstroms):
                    1          2          3
     1  O    0.000000
     2  Cl   2.135528   0.000000
     3  H    0.978649   2.266604   0.000000
 Stoichiometry    ClHO
 Framework group  CS[SG(ClHO)]
 Deg. of freedom     3
 Full point group                 CS      NOp   2
 Largest Abelian subgroup         CS      NOp   2
 Largest concise Abelian subgroup C1      NOp   1
                         Standard orientation:                         
 ---------------------------------------------------------------------
 Center     Atomic      Atomic             Coordinates (Angstroms)
 Number     Number       Type             X           Y           Z
 ---------------------------------------------------------------------
      1          8           0        0.037484    1.399736   -0.000000
      2         17           0        0.037484   -0.735793    0.000000
      3          1           0       -0.937096    1.310591   -0.000000
 ---------------------------------------------------------------------
 Rotational constants (GHZ):         558.8987341           9.7268694           9.5604823
 Standard basis: SVP (5D, 7F)
 There are    29 symmetry adapted cartesian basis functions of A'  symmetry.
 There are    10 symmetry adapted cartesian basis functions of A"  symmetry.
 There are    27 symmetry adapted basis functions of A'  symmetry.
 There are    10 symmetry adapted basis functions of A"  symmetry.
    37 basis functions,    69 primitive gaussians,    39 cartesian basis functions
    13 alpha electrons       13 beta electrons
       nuclear repulsion energy        41.9950890623 Hartrees.
 NAtoms=    3 NActive=    3 NUniq=    3 SFac= 1.00D+00 NAtFMM=   60 NAOKFM=F Big=F
 Integral buffers will be    131072 words long.
 Raffenetti 2 integral format.
 Two-electron integral symmetry is turned on.
 Nuclear repulsion after empirical dispersion term =       41.9934485970 Hartrees.
 One-electron integrals computed using PRISM.
 NBasis=    37 RedAO= T EigKep=  5.04D-02  NBF=    27    10
 NBsUse=    37 1.00D-06 EigRej= -1.00D+00 NBFU=    27    10
 Initial guess from the checkpoint file:  "/tmp/Gau-6213.chk"
 B after Tr=     0.000000    0.000000   -0.000000
         Rot=    1.000000    0.000000   -0.000000    0.000000 Ang=   0.00 deg.
 Initial guess orbital symmetries:
       Occupied  (A') (A') (A') (A') (A') (A") (A') (A') (A') (A')
                 (A") (A') (A")
       Virtual   (A') (A') (A') (A') (A') (A") (A') (A') (A") (A')
                 (A") (A') (A') (A") (A') (A') (A") (A') (A') (A")
                 (A') (A') (A") (A')
 Keep R1 ints in memory in symmetry-blocked form, NReq=7153137.
 Requested convergence on RMS density matrix=1.00D-08 within 128 cycles.
 Requested convergence on MAX density matrix=1.00D-06.
 Requested convergence on             energy=1.00D-06.
 No special actions if energy rises.
 SCF Done:  E(RB3LYP) =  -535.723447061     A.U. after    3 cycles
            NFock=  3  Conv=0.93D-10     -V/T= 2.0032
 Calling FoFJK, ICntrl=      2127 FMM=F ISym2X=1 I1Cent= 0 IOpClX= 0 NMat=1 NMatS=1 NMatT=0.
 ***** Axes restored to original set *****
 -------------------------------------------------------------------
 Center     Atomic                   Forces (Hartrees/Bohr)
 Number     Number              X              Y              Z
 -------------------------------------------------------------------
      1        8          -0.002387229   -0.002321160   -0.070838804
      2       17           0.002954397    0.002621374    0.061699146
      3        1          -0.000567168   -0.000300214    0.009139658
 -------------------------------------------------------------------
 Cartesian Forces:  Max     0.070838804 RMS     0.031509351

 GradGradGradGradGradGradGradGradGradGradGradGradGradGradGradGradGradGrad
 Berny optimization.
 Internal  Forces:  Max     0.061682736 RMS     0.036931178
 Search for a saddle point.
 Step number 100 out of a maximum of  100
 All quantities printed in internal units (Hartrees-Bohrs-Radians)
 Swapping is turned off.
 Update second derivatives using D2CorX and points  100
 The second derivative matrix:
                          R1        R2        A1
           R1           0.02259
           R2          -0.00229   0.49942
           A1           0.03117  -0.00147   0.12750
 ITU=  0  0  0  0
     Eigenvalues ---    0.01402   0.13605   0.49943
 Eigenvectors required to have negative eigenvalues:
                          R1        A1        R2
   1                    0.96429  -0.26480   0.00374
 RFO step:  Lambda0=7.135866676D-02 Lambda= 0.00000000D+00.
 Linear search not attempted -- option 19 set.
 Iteration  1 RMS(Cart)=  0.00000003 RMS(Int)=  0.00000000
 ClnCor:  largest displacement from symmetrization is 2.65D-15 for atom     1.
 Variable       Old X    -DE/DX   Delta X   Delta X   Delta X     New X
                                 (Linear)    (Quad)   (Total)
    R1        4.03556  -0.06168   0.00000   0.00000   0.00000   4.03556
    R2        1.84938  -0.00024   0.00000   0.00000   0.00000   1.84938
    A1        1.47958   0.01694   0.00000  -0.00000  -0.00000   1.47958
         Item               Value     Threshold  Converged?
 Maximum Force            0.061683     0.000450     NO 
 RMS     Force            0.036931     0.000300     NO 
 Maximum Displacement     0.000000     0.001800     YES
 RMS     Displacement     0.000000     0.001200     YES
 Predicted change in Energy= 3.265298D-09
 Optimization stopped.
    -- Number of steps exceeded,  NStep= 100
    -- Flag reset to prevent archiving.
                           ----------------------------
                           ! Non-Optimized Parameters !
                           ! (Angstroms and Degrees)  !
 --------------------------                            --------------------------
 ! Name  Definition              Value          Derivative Info.                !
 --------------------------------------------------------------------------------
 ! R1    R(1,2)                  2.1355         -DE/DX =   -0.0617              !
 ! R2    R(1,3)                  0.9786         -DE/DX =   -0.0002              !
 ! A1    A(2,1,3)               84.7737         -DE/DX =    0.0169              !
 --------------------------------------------------------------------------------
 GradGradGradGradGradGradGradGradGradGradGradGradGradGradGradGradGradGrad

                          Input orientation:                          
 ---------------------------------------------------------------------
 Center     Atomic      Atomic             Coordinates (Angstroms)
 Number     Number       Type             X           Y           Z
 ---------------------------------------------------------------------
      1          8           0        2.062826    3.935529    0.018676
      2         17           0        2.080417    3.926923   -2.116763
      3          1           0        1.259642    3.384260   -0.074867
 ---------------------------------------------------------------------
                    Distance matrix (angstroms):
                    1          2          3
     1  O    0.000000
     2  Cl   2.135528   0.000000
     3  H    0.978649   2.266604   0.000000
 Stoichiometry    ClHO
 Framework group  CS[SG(ClHO)]
 Deg. of freedom     3
 Full point group                 CS      NOp   2
 Largest Abelian subgroup         CS      NOp   2
 Largest concise Abelian subgroup C1      NOp   1
                         Standard orientation:                         
 ---------------------------------------------------------------------
 Center     Atomic      Atomic             Coordinates (Angstroms)
 Number     Number       Type             X           Y           Z
 ---------------------------------------------------------------------
      1          8           0        0.037484    1.399736   -0.000000
      2         17           0        0.037484   -0.735793    0.000000
      3          1           0       -0.937096    1.310591   -0.000000
 ---------------------------------------------------------------------
 Rotational constants (GHZ):         558.8987341           9.7268694           9.5604823

 **********************************************************************

            Population analysis using the SCF density.

 **********************************************************************

 Orbital symmetries:
       Occupied  (A') (A') (A') (A') (A') (A") (A') (A') (A') (A')
                 (A") (A') (A")
       Virtual   (A') (A') (A') (A') (A') (A") (A') (A') (A") (A')
                 (A") (A') (A') (A") (A') (A') (A") (A') (A') (A")
                 (A') (A') (A") (A')
 The electronic state is 1-A'.
 Alpha  occ. eigenvalues -- -101.54973 -19.22406  -9.49808  -7.27142  -7.25570
 Alpha  occ. eigenvalues --   -7.25542  -0.99573  -0.80505  -0.48141  -0.41085
 Alpha  occ. eigenvalues --   -0.36406  -0.33162  -0.31288
 Alpha virt. eigenvalues --   -0.18643   0.05371   0.46692   0.56438   0.66591
 Alpha virt. eigenvalues --    0.70824   0.71102   0.76160   0.76254   0.82630
 Alpha virt. eigenvalues --    0.82871   0.89525   0.95046   0.96846   1.01198
 Alpha virt. eigenvalues --    1.38197   1.39540   1.44387   2.13966   2.58181
 Alpha virt. eigenvalues --    2.65902   2.90329   2.92080   3.63421
          Condensed to atoms (all electrons):
               1          2          3
     1  O    7.782205   0.146641   0.282485
     2  Cl   0.146641  16.858215  -0.004292
     3  H    0.282485  -0.004292   0.509911
 Mulliken charges:
               1
     1  O   -0.211331
     2  Cl  -0.000564
     3  H    0.211895
 Sum of Mulliken charges =   0.00000
 Mulliken charges with hydrogens summed into heavy atoms:
               1
     1  O    0.000564
     2  Cl  -0.000564
 Electronic spatial extent (au):  <R**2>=            136.7816
 Charge=              0.0000 electrons
 Dipole moment (field-independent basis, Debye):
    X=             -1.6638    Y=             -0.1123    Z=              0.0000  Tot=              1.6676
 Quadrupole moment (field-independent basis, Debye-Ang):
   XX=            -16.6616   YY=            -16.3706   ZZ=            -18.8141
   XY=             -2.3868   XZ=              0.0000   YZ=             -0.0000
 Traceless Quadrupole moment (field-independent basis, Debye-Ang):
   XX=              0.6205   YY=              0.9115   ZZ=             -1.5320
   XY=             -2.3868   XZ=              0.0000   YZ=             -0.0000
 Octapole moment (field-independent basis, Debye-Ang**2):
  XXX=             -2.2075  YYY=              0.2747  ZZZ=             -0.0000  XYY=             -3.4950
  XXY=              3.3685  XXZ=             -0.0000  XZZ=             -0.2417  YZZ=              0.5137
  YYZ=             -0.0000  XYZ=             -0.0000
 Hexadecapole moment (field-independent basis, Debye-Ang**3):
 XXXX=            -17.1152 YYYY=           -109.9823 ZZZZ=            -16.8740 XXXY=             -0.2722
 XXXZ=              0.0000 YYYX=             -2.6870 YYYZ=             -0.0000 ZZZX=              0.0000
 ZZZY=             -0.0000 XXYY=            -20.5101 XXZZ=             -5.9788 YYZZ=            -23.9732
 XXYZ=             -0.0000 YYXZ=             -0.0000 ZZXY=              0.5536
 N-N= 4.199344859705D+01 E-N=-1.356661909836D+03  KE= 5.340336921627D+02
 Symmetry A'   KE= 4.832804182511D+02
 Symmetry A"   KE= 5.075327391155D+01


 THERE IS AN OLD, OLD RECIPE IN MAINE FOR STEWING COOT. PLACE THE
 BIRD IN A KETTLE OF WATER WITH A RED BUILDING BRICK FREE OF MORTAR AND
 BLEMISHES. PARBOIL THE COOT AND BRICK TOGETHER FOR THREE HOURS.
 POUR OFF THE WATER, REFILL THE KETTLE, AND AGAIN PARBOIL FOR THREE HOURS.
 ONCE AGAIN POUR OFF THE WATER, FOR THE LAST TIME ADD FRESH WATER,
 AND LET THE COOT AND BRICK SIMMER TOGETHER OVERNIGHT. IN THE MORNING,
 THROW AWAY THE COOT AND EAT THE BRICK.
 Error termination request processed by link 9999.
 Error termination via Lnk1e in /share/apps/g16.a03/g16/l9999.exe at Thu Mar  6 16:42:11 2025.
 Job cpu time:       0 days  0 hours 13 minutes 18.8 seconds.
 Elapsed time:       0 days  0 hours  1 minutes 43.5 seconds.
 File lengths (MBytes):  RWF=      6 Int=      0 D2E=      0 Chk=      1 Scr=      1
