 Entering Gaussian System, Link 0=g16
 Input=ts.gjf
 Output=ts.log
 Initial command:
 /share/apps/g16.a03/g16/l1.exe "/tmp/Gau-16265.inp" -scrdir="/tmp/"
 Entering Link 1 = /share/apps/g16.a03/g16/l1.exe PID=     16266.
  
 Copyright (c) 1988,1990,1992,1993,1995,1998,2003,2009,2016,
            Gaussian, Inc.  All Rights Reserved.
  
 This is part of the Gaussian(R) 16 program.  It is based on
 the Gaussian(R) 09 system (copyright 2009, Gaussian, Inc.),
 the Gaussian(R) 03 system (copyright 2003, Gaussian, Inc.),
 the Gaussian(R) 98 system (copyright 1998, Gaussian, Inc.),
 the Gaussian(R) 94 system (copyright 1995, Gaussian, Inc.),
 the Gaussian 92(TM) system (copyright 1992, Gaussian, Inc.),
 the Gaussian 90(TM) system (copyright 1990, Gaussian, Inc.),
 the Gaussian 88(TM) system (copyright 1988, Gaussian, Inc.),
 the Gaussian 86(TM) system (copyright 1986, Carnegie Mellon
 University), and the Gaussian 82(TM) system (copyright 1983,
 Carnegie Mellon University). Gaussian is a federally registered
 trademark of Gaussian, Inc.
  
 This software contains proprietary and confidential information,
 including trade secrets, belonging to Gaussian, Inc.
  
 This software is provided under written license and may be
 used, copied, transmitted, or stored only in accord with that
 written license.
  
 The following legend is applicable only to US Government
 contracts under FAR:
  
                    RESTRICTED RIGHTS LEGEND
  
 Use, reproduction and disclosure by the US Government is
 subject to restrictions as set forth in subparagraphs (a)
 and (c) of the Commercial Computer Software - Restricted
 Rights clause in FAR 52.227-19.
  
 Gaussian, Inc.
 340 Quinnipiac St., Bldg. 40, Wallingford CT 06492
  
  
 ---------------------------------------------------------------
 Warning -- This program may not be used in any manner that
 competes with the business of Gaussian, Inc. or will provide
 assistance to any competitor of Gaussian, Inc.  The licensee
 of this program is prohibited from giving any competitor of
 Gaussian, Inc. access to this program.  By using this program,
 the user acknowledges that Gaussian, Inc. is engaged in the
 business of creating and licensing software in the field of
 computational chemistry and represents and warrants to the
 licensee that it is not a competitor of Gaussian, Inc. and that
 it will not use this program in any manner prohibited above.
 ---------------------------------------------------------------
  

 Cite this work as:
 Gaussian 16, Revision A.03,
 M. J. Frisch, G. W. Trucks, H. B. Schlegel, G. E. Scuseria, 
 M. A. Robb, J. R. Cheeseman, G. Scalmani, V. Barone, 
 G. A. Petersson, H. Nakatsuji, X. Li, M. Caricato, A. V. Marenich, 
 J. Bloino, B. G. Janesko, R. Gomperts, B. Mennucci, H. P. Hratchian, 
 J. V. Ortiz, A. F. Izmaylov, J. L. Sonnenberg, D. Williams-Young, 
 F. Ding, F. Lipparini, F. Egidi, J. Goings, B. Peng, A. Petrone, 
 T. Henderson, D. Ranasinghe, V. G. Zakrzewski, J. Gao, N. Rega, 
 G. Zheng, W. Liang, M. Hada, M. Ehara, K. Toyota, R. Fukuda, 
 J. Hasegawa, M. Ishida, T. Nakajima, Y. Honda, O. Kitao, H. Nakai, 
 T. Vreven, K. Throssell, J. A. Montgomery, Jr., J. E. Peralta, 
 F. Ogliaro, M. J. Bearpark, J. J. Heyd, E. N. Brothers, K. N. Kudin, 
 V. N. Staroverov, T. A. Keith, R. Kobayashi, J. Normand, 
 K. Raghavachari, A. P. Rendell, J. C. Burant, S. S. Iyengar, 
 J. Tomasi, M. Cossi, J. M. Millam, M. Klene, C. Adamo, R. Cammi, 
 J. W. Ochterski, R. L. Martin, K. Morokuma, O. Farkas, 
 J. B. Foresman, and D. J. Fox, Gaussian, Inc., Wallingford CT, 2016.
 
 ******************************************
 Gaussian 16:  EM64L-G16RevA.03 25-Dec-2016
                 6-Mar-2025 
 ******************************************
 %nproc=8
 Will use up to    8 processors via shared memory.
 %mem=4000MB
 --------------------------------------------------------------------
 #opt=(noeigen,calcfc,ts,recalc=5,maxcyc=200) freq B3LYP/SVP em=GD3BJ
 --------------------------------------------------------------------
 1/5=1,6=200,10=4,11=1,18=20,26=3,38=1,71=5/1,3;
 2/9=110,12=2,17=6,18=5,40=1/2;
 3/5=18,7=101,11=2,25=1,30=1,71=2,74=-5,124=41,140=1/1,2,3;
 4//1;
 5/5=2,38=5/2;
 8/6=4,10=90,11=11/1;
 11/6=1,8=1,9=11,15=111,16=1/1,2,10;
 10/6=1,13=1/2;
 6/7=2,8=2,9=2,10=2,28=1/1;
 7/10=1,18=20,25=1/1,2,3,16;
 1/5=1,6=200,10=4,11=1,18=20,26=3,71=5/3(2);
 2/9=110/2;
 99//99;
 2/9=110/2;
 3/5=18,7=101,11=2,25=1,30=1,71=1,74=-5,124=41/1,2,3;
 4/5=5,16=3,69=1/1;
 5/5=2,38=5/2;
 7//1,2,3,16;
 1/5=1,6=200,11=1,18=20,26=3,71=5/3(-5);
 2/9=110/2;
 6/7=2,8=2,9=2,10=2,19=2,28=1/1;
 99/9=1/99;
 ----------
 ts-520.gjf
 ----------
 Symbolic Z-matrix:
 Charge =  0 Multiplicity = 1
 O                    -1.30549   2.70996  -0.02926 
 Cl                   -0.77003  -0.45717   0.19896 
 H                    -1.37013   3.61425   0.31845 
 
 Add virtual bond connecting atoms Cl2        and O1         Dist= 6.09D+00.

 GradGradGradGradGradGradGradGradGradGradGradGradGradGradGradGradGradGrad
 Berny optimization.
 Initialization pass.
                           ----------------------------
                           !    Initial Parameters    !
                           ! (Angstroms and Degrees)  !
 --------------------------                            --------------------------
 ! Name  Definition              Value          Derivative Info.                !
 --------------------------------------------------------------------------------
 ! R1    R(1,2)                  3.2202         calculate D2E/DX2 analytically  !
 ! R2    R(1,3)                  0.971          calculate D2E/DX2 analytically  !
 ! A1    A(2,1,3)              154.3769         calculate D2E/DX2 analytically  !
 --------------------------------------------------------------------------------
 Trust Radius=3.00D-01 FncErr=1.00D-07 GrdErr=1.00D-06 EigMax=2.50D+02 EigMin=1.00D-04
 Number of steps in this run=    100 maximum allowed number of steps=    100.
 Search for a saddle point of order  1.
 GradGradGradGradGradGradGradGradGradGradGradGradGradGradGradGradGradGrad

                          Input orientation:                          
 ---------------------------------------------------------------------
 Center     Atomic      Atomic             Coordinates (Angstroms)
 Number     Number       Type             X           Y           Z
 ---------------------------------------------------------------------
      1          8           0       -1.305490    2.709961   -0.029258
      2         17           0       -0.770031   -0.457165    0.198958
      3          1           0       -1.370133    3.614245    0.318450
 ---------------------------------------------------------------------
                    Distance matrix (angstroms):
                    1          2          3
     1  O    0.000000
     2  Cl   3.220169   0.000000
     3  H    0.970984   4.117133   0.000000
 Stoichiometry    ClHO
 Framework group  CS[SG(ClHO)]
 Deg. of freedom     3
 Full point group                 CS      NOp   2
 Largest Abelian subgroup         CS      NOp   2
 Largest concise Abelian subgroup C1      NOp   1
                         Standard orientation:                         
 ---------------------------------------------------------------------
 Center     Atomic      Atomic             Coordinates (Angstroms)
 Number     Number       Type             X           Y           Z
 ---------------------------------------------------------------------
      1          8           0        0.016150    2.071822   -0.000000
      2         17           0        0.016150   -1.148347    0.000000
      3          1           0       -0.403752    2.947317   -0.000000
 ---------------------------------------------------------------------
 Rotational constants (GHZ):        3140.3360850           4.1013190           4.0959696
 Standard basis: SVP (5D, 7F)
 There are    29 symmetry adapted cartesian basis functions of A'  symmetry.
 There are    10 symmetry adapted cartesian basis functions of A"  symmetry.
 There are    27 symmetry adapted basis functions of A'  symmetry.
 There are    10 symmetry adapted basis functions of A"  symmetry.
    37 basis functions,    69 primitive gaussians,    39 cartesian basis functions
    13 alpha electrons       13 beta electrons
       nuclear repulsion energy        28.8941159522 Hartrees.
 NAtoms=    3 NActive=    3 NUniq=    3 SFac= 1.00D+00 NAtFMM=   60 NAOKFM=F Big=F
 Integral buffers will be    131072 words long.
 Raffenetti 2 integral format.
 Two-electron integral symmetry is turned on.
 Nuclear repulsion after empirical dispersion term =       28.8931410731 Hartrees.
 One-electron integrals computed using PRISM.
 NBasis=    37 RedAO= T EigKep=  5.44D-02  NBF=    27    10
 NBsUse=    37 1.00D-06 EigRej= -1.00D+00 NBFU=    27    10
 ExpMin= 1.22D-01 ExpMax= 1.04D+04 ExpMxC= 1.57D+03 IAcc=3 IRadAn=         5 AccDes= 0.00D+00
 Harris functional with IExCor=  402 and IRadAn=       5 diagonalized for initial guess.
 HarFok:  IExCor=  402 AccDes= 0.00D+00 IRadAn=         5 IDoV= 1 UseB2=F ITyADJ=14
 ICtDFT=  3500011 ScaDFX=  1.000000  1.000000  1.000000  1.000000
 FoFCou: FMM=F IPFlag=           0 FMFlag=      100000 FMFlg1=           0
         NFxFlg=           0 DoJE=T BraDBF=F KetDBF=T FulRan=T
         wScrn=  0.000000 ICntrl=       500 IOpCl=  0 I1Cent=   200000004 NGrid=           0
         NMat0=    1 NMatS0=      1 NMatT0=    0 NMatD0=    1 NMtDS0=    0 NMtDT0=    0
 Petite list used in FoFCou.
 Initial guess orbital symmetries:
       Occupied  (A') (A') (A') (A') (A') (A") (A') (A') (A') (A')
                 (A") (A') (A")
       Virtual   (A') (A') (A') (A') (A') (A') (A") (A") (A') (A')
                 (A') (A") (A') (A") (A') (A') (A") (A') (A') (A")
                 (A') (A") (A') (A')
 The electronic state of the initial guess is 1-A'.
 Keep R1 ints in memory in symmetry-blocked form, NReq=7153137.
 Requested convergence on RMS density matrix=1.00D-08 within 128 cycles.
 Requested convergence on MAX density matrix=1.00D-06.
 Requested convergence on             energy=1.00D-06.
 No special actions if energy rises.
 Integral accuracy reduced to 1.0D-05 until final iterations.
 EnCoef did   100 forward-backward iterations
 EnCoef did   100 forward-backward iterations
 Initial convergence to 1.0D-05 achieved.  Increase integral accuracy.
 SCF Done:  E(RB3LYP) =  -535.589963048     A.U. after   31 cycles
            NFock= 31  Conv=0.19D-08     -V/T= 2.0026
 DoSCS=F DFT=T ScalE2(SS,OS)=  1.000000  1.000000
 Range of M.O.s used for correlation:     1    37
 NBasis=    37 NAE=    13 NBE=    13 NFC=     0 NFV=     0
 NROrb=     37 NOA=    13 NOB=    13 NVA=    24 NVB=    24

 **** Warning!!: The smallest alpha delta epsilon is  0.29310050D-01

 Symmetrizing basis deriv contribution to polar:
 IMax=3 JMax=2 DiffMx= 0.00D+00
 G2DrvN: will do     4 centers at a time, making    1 passes.
 Calling FoFCou, ICntrl=  3107 FMM=F I1Cent=   0 AccDes= 0.00D+00.
 End of G2Drv F.D. properties file   721 does not exist.
 End of G2Drv F.D. properties file   722 does not exist.
 End of G2Drv F.D. properties file   788 does not exist.
          IDoAtm=111
          Differentiating once with respect to nuclear coordinates.
 Keep R1 ints in memory in symmetry-blocked form, NReq=7127963.
          There are    12 degrees of freedom in the 1st order CPHF.  IDoFFX=6 NUNeed=     0.
      6 vectors produced by pass  0 Test12= 2.60D-15 8.33D-09 XBig12= 1.52D-01 3.58D-01.
 AX will form     6 AO Fock derivatives at one time.
      6 vectors produced by pass  1 Test12= 2.60D-15 8.33D-09 XBig12= 2.81D+00 8.58D-01.
      6 vectors produced by pass  2 Test12= 2.60D-15 8.33D-09 XBig12= 8.38D-02 1.06D-01.
      6 vectors produced by pass  3 Test12= 2.60D-15 8.33D-09 XBig12= 1.89D-03 1.62D-02.
      6 vectors produced by pass  4 Test12= 2.60D-15 8.33D-09 XBig12= 2.37D-06 7.37D-04.
      4 vectors produced by pass  5 Test12= 2.60D-15 8.33D-09 XBig12= 4.57D-09 4.62D-05.
      4 vectors produced by pass  6 Test12= 2.60D-15 8.33D-09 XBig12= 3.31D-12 8.21D-07.
      2 vectors produced by pass  7 Test12= 2.60D-15 8.33D-09 XBig12= 1.73D-15 1.47D-08.
 InvSVY:  IOpt=1 It=  1 EMax= 3.56D-16
 Solved reduced A of dimension    40 with     6 vectors.
 End of Minotr F.D. properties file   721 does not exist.
 End of Minotr F.D. properties file   722 does not exist.
 End of Minotr F.D. properties file   788 does not exist.

 **********************************************************************

            Population analysis using the SCF density.

 **********************************************************************

 Orbital symmetries:
       Occupied  (A') (A') (A') (A") (A') (A') (A') (A') (A') (A')
                 (A") (A') (A')
       Virtual   (A") (A') (A') (A') (A') (A") (A") (A') (A') (A')
                 (A") (A') (A") (A') (A') (A') (A") (A') (A') (A")
                 (A') (A") (A') (A')
 The electronic state is 1-A'.
 Alpha  occ. eigenvalues -- -101.51889 -19.20907  -9.46944  -7.24210  -7.22713
 Alpha  occ. eigenvalues --   -7.22703  -0.97398  -0.78423  -0.46548  -0.33385
 Alpha  occ. eigenvalues --   -0.31505  -0.31220  -0.30820
 Alpha virt. eigenvalues --   -0.27889   0.04772   0.44264   0.55304   0.75249
 Alpha virt. eigenvalues --    0.76498   0.76557   0.77004   0.78655   0.80364
 Alpha virt. eigenvalues --    0.84579   0.86269   0.88531   0.89778   0.99750
 Alpha virt. eigenvalues --    1.07809   1.38851   1.40279   2.15283   2.58662
 Alpha virt. eigenvalues --    2.58900   2.91081   2.93642   3.64651
          Condensed to atoms (all electrons):
               1          2          3
     1  O    7.867796   0.005531   0.278673
     2  Cl   0.005531  17.027490   0.000702
     3  H    0.278673   0.000702   0.534903
 Mulliken charges:
               1
     1  O   -0.152000
     2  Cl  -0.033722
     3  H    0.185722
 Sum of Mulliken charges =  -0.00000
 Mulliken charges with hydrogens summed into heavy atoms:
               1
     1  O    0.033722
     2  Cl  -0.033722
 APT charges:
               1
     1  O   -0.678373
     2  Cl  -0.039412
     3  H    0.717784
 Sum of APT charges =  -0.00000
 APT charges with hydrogens summed into heavy atoms:
               1
     1  O    0.039412
     2  Cl  -0.039412
 Electronic spatial extent (au):  <R**2>=            267.4377
 Charge=             -0.0000 electrons
 Dipole moment (field-independent basis, Debye):
    X=             -0.7523    Y=              2.1212    Z=             -0.0000  Tot=              2.2506
 Quadrupole moment (field-independent basis, Debye-Ang):
   XX=            -18.5049   YY=            -10.1063   ZZ=            -15.9457
   XY=             -2.3989   XZ=             -0.0000   YZ=             -0.0000
 Traceless Quadrupole moment (field-independent basis, Debye-Ang):
   XX=             -3.6526   YY=              4.7460   ZZ=             -1.0934
   XY=             -2.3989   XZ=             -0.0000   YZ=             -0.0000
 Octapole moment (field-independent basis, Debye-Ang**2):
  XXX=             -0.4772  YYY=             38.0021  ZZZ=             -0.0000  XYY=             -7.3731
  XXY=              2.2271  XXZ=             -0.0000  XZZ=             -0.0825  YZZ=              1.1494
  YYZ=             -0.0000  XYZ=              0.0000
 Hexadecapole moment (field-independent basis, Debye-Ang**3):
 XXXX=            -17.3709 YYYY=           -173.2717 ZZZZ=            -12.9267 XXXY=              1.2381
 XXXZ=             -0.0000 YYYX=            -19.9139 YYYZ=              0.0000 ZZZX=             -0.0000
 ZZZY=              0.0000 XXYY=            -48.1702 XXZZ=             -5.0577 YYZZ=            -43.2861
 XXYZ=              0.0000 YYXZ=              0.0000 ZZXY=              0.5139
 N-N= 2.889314107310D+01 E-N=-1.331126670434D+03  KE= 5.342178486453D+02
 Symmetry A'   KE= 4.884614349289D+02
 Symmetry A"   KE= 4.575641371641D+01
  Exact polarizability:   0.000   0.000   0.000   0.000   0.000   0.000
 Approx polarizability:  10.259  -4.5701049.003   0.000  -0.000  12.649
 Calling FoFJK, ICntrl=    100147 FMM=F ISym2X=1 I1Cent= 0 IOpClX= 0 NMat=1 NMatS=1 NMatT=0.
 ***** Axes restored to original set *****
 -------------------------------------------------------------------
 Center     Atomic                   Forces (Hartrees/Bohr)
 Number     Number              X              Y              Z
 -------------------------------------------------------------------
      1        8           0.001662360   -0.015224618   -0.003168275
      2       17          -0.000973809    0.005742136   -0.000427790
      3        1          -0.000688551    0.009482483    0.003596065
 -------------------------------------------------------------------
 Cartesian Forces:  Max     0.015224618 RMS     0.006515086
 FormGI is forming the generalized inverse of G from B-inverse, IUseBI=4.

 GradGradGradGradGradGradGradGradGradGradGradGradGradGradGradGradGradGrad
 Berny optimization.
 Internal  Forces:  Max     0.010164734 RMS     0.006768382
 Search for a saddle point.
 Step number   1 out of a maximum of  100
 All quantities printed in internal units (Hartrees-Bohrs-Radians)
 Swapping is turned off.
 Second derivative matrix not updated -- analytic derivatives used.
 The second derivative matrix:
                          R1        R2        A1
           R1          -0.00107
           R2           0.00080   0.52103
           A1           0.00053  -0.00049  -0.00047
 ITU=  0
     Eigenvalues ---   -0.00138  -0.00016   0.52103
 Eigenvectors required to have negative eigenvalues:
                          R1        A1        R2
   1                   -0.86293   0.50533   0.00180
 RFO step:  Lambda0=4.457229091D-03 Lambda=-3.05427009D-03.
 Linear search not attempted -- option 19 set.
 Maximum step size (   0.300) exceeded in Quadratic search.
    -- Step size scaled by   0.261
 Iteration  1 RMS(Cart)=  0.12785913 RMS(Int)=  0.05302499
 Iteration  2 RMS(Cart)=  0.06530944 RMS(Int)=  0.00314016
 Iteration  3 RMS(Cart)=  0.00244693 RMS(Int)=  0.00000093
 Iteration  4 RMS(Cart)=  0.00000120 RMS(Int)=  0.00000000
 Iteration  5 RMS(Cart)=  0.00000000 RMS(Int)=  0.00000000
 ClnCor:  largest displacement from symmetrization is 8.19D-15 for atom     3.
 Variable       Old X    -DE/DX   Delta X   Delta X   Delta X     New X
                                 (Linear)    (Quad)   (Total)
    R1        6.08524  -0.00584   0.00000   0.09766   0.09766   6.18290
    R2        1.83489   0.01016   0.00000   0.00463   0.00463   1.83953
    A1        2.69438   0.00009   0.00000  -0.28362  -0.28362   2.41076
         Item               Value     Threshold  Converged?
 Maximum Force            0.010165     0.000450     NO 
 RMS     Force            0.006768     0.000300     NO 
 Maximum Displacement     0.218255     0.001800     NO 
 RMS     Displacement     0.184132     0.001200     NO 
 Predicted change in Energy= 5.159793D-04
 GradGradGradGradGradGradGradGradGradGradGradGradGradGradGradGradGradGrad

                          Input orientation:                          
 ---------------------------------------------------------------------
 Center     Atomic      Atomic             Coordinates (Angstroms)
 Number     Number       Type             X           Y           Z
 ---------------------------------------------------------------------
      1          8           0       -1.336977    2.754225   -0.144753
      2         17           0       -0.765373   -0.445541    0.229108
      3          1           0       -1.343304    3.558358    0.403795
 ---------------------------------------------------------------------
                    Distance matrix (angstroms):
                    1          2          3
     1  O    0.000000
     2  Cl   3.271850   0.000000
     3  H    0.973435   4.049163   0.000000
 Stoichiometry    ClHO
 Framework group  CS[SG(ClHO)]
 Deg. of freedom     3
 Full point group                 CS      NOp   2
 Largest Abelian subgroup         CS      NOp   2
 Largest concise Abelian subgroup C1      NOp   1
                         Standard orientation:                         
 ---------------------------------------------------------------------
 Center     Atomic      Atomic             Coordinates (Angstroms)
 Number     Number       Type             X           Y           Z
 ---------------------------------------------------------------------
      1          8           0        0.024991    2.111408   -0.000000
      2         17           0        0.024991   -1.160442    0.000000
      3          1           0       -0.624764    2.836250    0.000000
 ---------------------------------------------------------------------
 Rotational constants (GHZ):        1301.4249746           4.0035695           3.9912911
 Standard basis: SVP (5D, 7F)
 There are    29 symmetry adapted cartesian basis functions of A'  symmetry.
 There are    10 symmetry adapted cartesian basis functions of A"  symmetry.
 There are    27 symmetry adapted basis functions of A'  symmetry.
 There are    10 symmetry adapted basis functions of A"  symmetry.
    37 basis functions,    69 primitive gaussians,    39 cartesian basis functions
    13 alpha electrons       13 beta electrons
       nuclear repulsion energy        28.5667902422 Hartrees.
 NAtoms=    3 NActive=    3 NUniq=    3 SFac= 1.00D+00 NAtFMM=   60 NAOKFM=F Big=F
 Integral buffers will be    131072 words long.
 Raffenetti 2 integral format.
 Two-electron integral symmetry is turned on.
 Nuclear repulsion after empirical dispersion term =       28.5658313451 Hartrees.
 One-electron integrals computed using PRISM.
 NBasis=    37 RedAO= T EigKep=  5.49D-02  NBF=    27    10
 NBsUse=    37 1.00D-06 EigRej= -1.00D+00 NBFU=    27    10
 Initial guess from the checkpoint file:  "/tmp/Gau-16266.chk"
 B after Tr=    -0.000000    0.000000    0.000000
         Rot=    0.999985    0.000000   -0.000000   -0.005463 Ang=  -0.63 deg.
 Initial guess orbital symmetries:
       Occupied  (A') (A') (A') (A") (A') (A') (A') (A') (A') (A')
                 (A") (A') (A')
       Virtual   (A") (A') (A') (A') (A') (A") (A") (A') (A') (A')
                 (A") (A') (A") (A') (A') (A') (A") (A') (A') (A")
                 (A') (A") (A') (A')
 ExpMin= 1.22D-01 ExpMax= 1.04D+04 ExpMxC= 1.57D+03 IAcc=2 IRadAn=         4 AccDes= 0.00D+00
 Harris functional with IExCor=  402 and IRadAn=       4 diagonalized for initial guess.
 HarFok:  IExCor=  402 AccDes= 0.00D+00 IRadAn=         4 IDoV= 1 UseB2=F ITyADJ=14
 ICtDFT=  3500011 ScaDFX=  1.000000  1.000000  1.000000  1.000000
 FoFCou: FMM=F IPFlag=           0 FMFlag=      100000 FMFlg1=           0
         NFxFlg=           0 DoJE=T BraDBF=F KetDBF=T FulRan=T
         wScrn=  0.000000 ICntrl=       500 IOpCl=  0 I1Cent=   200000004 NGrid=           0
         NMat0=    1 NMatS0=      1 NMatT0=    0 NMatD0=    1 NMtDS0=    0 NMtDT0=    0
 Petite list used in FoFCou.
 Keep R1 ints in memory in symmetry-blocked form, NReq=7153137.
 Requested convergence on RMS density matrix=1.00D-08 within 128 cycles.
 Requested convergence on MAX density matrix=1.00D-06.
 Requested convergence on             energy=1.00D-06.
 No special actions if energy rises.
 Integral accuracy reduced to 1.0D-05 until final iterations.
 Initial convergence to 1.0D-05 achieved.  Increase integral accuracy.
 SCF Done:  E(RB3LYP) =  -535.589464099     A.U. after   18 cycles
            NFock= 18  Conv=0.16D-09     -V/T= 2.0026
 Calling FoFJK, ICntrl=      2127 FMM=F ISym2X=1 I1Cent= 0 IOpClX= 0 NMat=1 NMatS=1 NMatT=0.
 ***** Axes restored to original set *****
 -------------------------------------------------------------------
 Center     Atomic                   Forces (Hartrees/Bohr)
 Number     Number              X              Y              Z
 -------------------------------------------------------------------
      1        8           0.000982847   -0.011650067   -0.003777556
      2       17          -0.000971883    0.005493019   -0.000597887
      3        1          -0.000010964    0.006157048    0.004375442
 -------------------------------------------------------------------
 Cartesian Forces:  Max     0.011650067 RMS     0.005158479

 GradGradGradGradGradGradGradGradGradGradGradGradGradGradGradGradGradGrad
 Berny optimization.
 FormGI is forming the generalized inverse of G from B-inverse, IUseBI=4.
 Internal  Forces:  Max     0.007551878 RMS     0.005433841
 Search for a saddle point.
 Step number   2 out of a maximum of  100
 All quantities printed in internal units (Hartrees-Bohrs-Radians)
 Swapping is turned off.
 Update second derivatives using D2CorX and points    1    2
 The second derivative matrix:
                          R1        R2        A1
           R1          -0.00106
           R2           0.00081   0.52102
           A1           0.00046  -0.00043  -0.00113
 ITU=  0  0
     Eigenvalues ---   -0.00156  -0.00063   0.52102
 Eigenvectors required to have negative eigenvalues:
                          A1        R1        R2
   1                    0.73436  -0.67876   0.00164
 RFO step:  Lambda0=2.922819594D-03 Lambda=-4.69018646D-03.
 Linear search not attempted -- option 19 set.
 Maximum step size (   0.300) exceeded in Quadratic search.
    -- Step size scaled by   0.233
 Iteration  1 RMS(Cart)=  0.14752683 RMS(Int)=  0.05958673
 Iteration  2 RMS(Cart)=  0.07853483 RMS(Int)=  0.00416112
 Iteration  3 RMS(Cart)=  0.00307584 RMS(Int)=  0.00000117
 Iteration  4 RMS(Cart)=  0.00000162 RMS(Int)=  0.00000000
 Iteration  5 RMS(Cart)=  0.00000000 RMS(Int)=  0.00000000
 ClnCor:  largest displacement from symmetrization is 6.39D-15 for atom     3.
 Variable       Old X    -DE/DX   Delta X   Delta X   Delta X     New X
                                 (Linear)    (Quad)   (Total)
    R1        6.18290  -0.00561   0.00000  -0.04341  -0.04341   6.13950
    R2        1.83953   0.00755   0.00000   0.00317   0.00317   1.84270
    A1        2.41076  -0.00028   0.00000  -0.29683  -0.29683   2.11394
         Item               Value     Threshold  Converged?
 Maximum Force            0.007552     0.000450     NO 
 RMS     Force            0.005434     0.000300     NO 
 Maximum Displacement     0.227004     0.001800     NO 
 RMS     Displacement     0.223805     0.001200     NO 
 Predicted change in Energy=-3.912059D-04
 GradGradGradGradGradGradGradGradGradGradGradGradGradGradGradGradGradGrad

                          Input orientation:                          
 ---------------------------------------------------------------------
 Center     Atomic      Atomic             Coordinates (Angstroms)
 Number     Number       Type             X           Y           Z
 ---------------------------------------------------------------------
      1          8           0       -1.364996    2.791139   -0.249307
      2         17           0       -0.771674   -0.362330    0.259453
      3          1           0       -1.308984    3.438232    0.478004
 ---------------------------------------------------------------------
                    Distance matrix (angstroms):
                    1          2          3
     1  O    0.000000
     2  Cl   3.248881   0.000000
     3  H    0.975115   3.844572   0.000000
 Stoichiometry    ClHO
 Framework group  CS[SG(ClHO)]
 Deg. of freedom     3
 Full point group                 CS      NOp   2
 Largest Abelian subgroup         CS      NOp   2
 Largest concise Abelian subgroup C1      NOp   1
                         Standard orientation:                         
 ---------------------------------------------------------------------
 Center     Atomic      Atomic             Coordinates (Angstroms)
 Number     Number       Type             X           Y           Z
 ---------------------------------------------------------------------
      1          8           0        0.032107    2.104885   -0.000000
      2         17           0        0.032107   -1.143996    0.000000
      3          1           0       -0.802678    2.608852   -0.000000
 ---------------------------------------------------------------------
 Rotational constants (GHZ):         780.8460876           4.0998670           4.0784529
 Standard basis: SVP (5D, 7F)
 There are    29 symmetry adapted cartesian basis functions of A'  symmetry.
 There are    10 symmetry adapted cartesian basis functions of A"  symmetry.
 There are    27 symmetry adapted basis functions of A'  symmetry.
 There are    10 symmetry adapted basis functions of A"  symmetry.
    37 basis functions,    69 primitive gaussians,    39 cartesian basis functions
    13 alpha electrons       13 beta electrons
       nuclear repulsion energy        28.8330391497 Hartrees.
 NAtoms=    3 NActive=    3 NUniq=    3 SFac= 1.00D+00 NAtFMM=   60 NAOKFM=F Big=F
 Integral buffers will be    131072 words long.
 Raffenetti 2 integral format.
 Two-electron integral symmetry is turned on.
 Nuclear repulsion after empirical dispersion term =       28.8320315959 Hartrees.
 One-electron integrals computed using PRISM.
 NBasis=    37 RedAO= T EigKep=  5.52D-02  NBF=    27    10
 NBsUse=    37 1.00D-06 EigRej= -1.00D+00 NBFU=    27    10
 Initial guess from the checkpoint file:  "/tmp/Gau-16266.chk"
 B after Tr=     0.000000   -0.000000    0.000000
         Rot=    0.999987    0.000000   -0.000000   -0.005091 Ang=  -0.58 deg.
 Initial guess orbital symmetries:
       Occupied  (A') (A') (A') (A") (A') (A') (A') (A') (A') (A')
                 (A") (A') (A')
       Virtual   (A") (A') (A') (A') (A') (A") (A") (A') (A') (A')
                 (A") (A') (A") (A') (A') (A') (A") (A') (A') (A")
                 (A') (A") (A') (A')
 ExpMin= 1.22D-01 ExpMax= 1.04D+04 ExpMxC= 1.57D+03 IAcc=2 IRadAn=         4 AccDes= 0.00D+00
 Harris functional with IExCor=  402 and IRadAn=       4 diagonalized for initial guess.
 HarFok:  IExCor=  402 AccDes= 0.00D+00 IRadAn=         4 IDoV= 1 UseB2=F ITyADJ=14
 ICtDFT=  3500011 ScaDFX=  1.000000  1.000000  1.000000  1.000000
 FoFCou: FMM=F IPFlag=           0 FMFlag=      100000 FMFlg1=           0
         NFxFlg=           0 DoJE=T BraDBF=F KetDBF=T FulRan=T
         wScrn=  0.000000 ICntrl=       500 IOpCl=  0 I1Cent=   200000004 NGrid=           0
         NMat0=    1 NMatS0=      1 NMatT0=    0 NMatD0=    1 NMtDS0=    0 NMtDT0=    0
 Petite list used in FoFCou.
 Keep R1 ints in memory in symmetry-blocked form, NReq=7153137.
 Requested convergence on RMS density matrix=1.00D-08 within 128 cycles.
 Requested convergence on MAX density matrix=1.00D-06.
 Requested convergence on             energy=1.00D-06.
 No special actions if energy rises.
 Integral accuracy reduced to 1.0D-05 until final iterations.
 Initial convergence to 1.0D-05 achieved.  Increase integral accuracy.
 SCF Done:  E(RB3LYP) =  -535.589909087     A.U. after   19 cycles
            NFock= 19  Conv=0.15D-09     -V/T= 2.0026
 Calling FoFJK, ICntrl=      2127 FMM=F ISym2X=1 I1Cent= 0 IOpClX= 0 NMat=1 NMatS=1 NMatT=0.
 ***** Axes restored to original set *****
 -------------------------------------------------------------------
 Center     Atomic                   Forces (Hartrees/Bohr)
 Number     Number              X              Y              Z
 -------------------------------------------------------------------
      1        8           0.000525179   -0.008910180   -0.003948977
      2       17          -0.000994460    0.005474498   -0.000716836
      3        1           0.000469281    0.003435682    0.004665813
 -------------------------------------------------------------------
 Cartesian Forces:  Max     0.008910180 RMS     0.004223327

 GradGradGradGradGradGradGradGradGradGradGradGradGradGradGradGradGradGrad
 Berny optimization.
 FormGI is forming the generalized inverse of G from B-inverse, IUseBI=4.
 Internal  Forces:  Max     0.005787469 RMS     0.004689629
 Search for a saddle point.
 Step number   3 out of a maximum of  100
 All quantities printed in internal units (Hartrees-Bohrs-Radians)
 Swapping is turned off.
 Update second derivatives using D2CorX and points    1    2    3
 The second derivative matrix:
                          R1        R2        A1
           R1          -0.00111
           R2           0.00079   0.52102
           A1           0.00018  -0.00049  -0.00253
 ITU=  0  0  0
     Eigenvalues ---   -0.00256  -0.00109   0.52102
 Eigenvectors required to have negative eigenvalues:
                          A1        R1        R2
   1                   -0.99241   0.12300  -0.00111
 RFO step:  Lambda0=3.803648695D-05 Lambda=-6.29672597D-03.
 Linear search not attempted -- option 19 set.
 Maximum step size (   0.300) exceeded in Quadratic search.
    -- Step size scaled by   0.298
 Iteration  1 RMS(Cart)=  0.09340739 RMS(Int)=  0.05774592
 Iteration  2 RMS(Cart)=  0.04677496 RMS(Int)=  0.00001838
 Iteration  3 RMS(Cart)=  0.00002087 RMS(Int)=  0.00000000
 Iteration  4 RMS(Cart)=  0.00000000 RMS(Int)=  0.00000000
 ClnCor:  largest displacement from symmetrization is 2.74D-15 for atom     3.
 Variable       Old X    -DE/DX   Delta X   Delta X   Delta X     New X
                                 (Linear)    (Quad)   (Total)
    R1        6.13950  -0.00561   0.00000  -0.29998  -0.29998   5.83952
    R2        1.84270   0.00579   0.00000   0.00372   0.00372   1.84642
    A1        2.11394  -0.00102   0.00000  -0.00085  -0.00085   2.11309
         Item               Value     Threshold  Converged?
 Maximum Force            0.005787     0.000450     NO 
 RMS     Force            0.004690     0.000300     NO 
 Maximum Displacement     0.195331     0.001800     NO 
 RMS     Displacement     0.140172     0.001200     NO 
 Predicted change in Energy=-1.751675D-03
 GradGradGradGradGradGradGradGradGradGradGradGradGradGradGradGradGradGrad

                          Input orientation:                          
 ---------------------------------------------------------------------
 Center     Atomic      Atomic             Coordinates (Angstroms)
 Number     Number       Type             X           Y           Z
 ---------------------------------------------------------------------
      1          8           0       -1.356006    2.737105   -0.246094
      2         17           0       -0.788615   -0.258965    0.254507
      3          1           0       -1.301033    3.388901    0.479737
 ---------------------------------------------------------------------
                    Distance matrix (angstroms):
                    1          2          3
     1  O    0.000000
     2  Cl   3.090141   0.000000
     3  H    0.977083   3.690559   0.000000
 Stoichiometry    ClHO
 Framework group  CS[SG(ClHO)]
 Deg. of freedom     3
 Full point group                 CS      NOp   2
 Largest Abelian subgroup         CS      NOp   2
 Largest concise Abelian subgroup C1      NOp   1
                         Standard orientation:                         
 ---------------------------------------------------------------------
 Center     Atomic      Atomic             Coordinates (Angstroms)
 Number     Number       Type             X           Y           Z
 ---------------------------------------------------------------------
      1          8           0        0.032188    2.001081    0.000000
      2         17           0        0.032188   -1.089059   -0.000000
      3          1           0       -0.804709    2.505357    0.000000
 ---------------------------------------------------------------------
 Rotational constants (GHZ):         777.8402626           4.5264801           4.5002916
 Standard basis: SVP (5D, 7F)
 There are    29 symmetry adapted cartesian basis functions of A'  symmetry.
 There are    10 symmetry adapted cartesian basis functions of A"  symmetry.
 There are    27 symmetry adapted basis functions of A'  symmetry.
 There are    10 symmetry adapted basis functions of A"  symmetry.
    37 basis functions,    69 primitive gaussians,    39 cartesian basis functions
    13 alpha electrons       13 beta electrons
       nuclear repulsion energy        30.0598710297 Hartrees.
 NAtoms=    3 NActive=    3 NUniq=    3 SFac= 1.00D+00 NAtFMM=   60 NAOKFM=F Big=F
 Integral buffers will be    131072 words long.
 Raffenetti 2 integral format.
 Two-electron integral symmetry is turned on.
 Nuclear repulsion after empirical dispersion term =       30.0587508627 Hartrees.
 One-electron integrals computed using PRISM.
 NBasis=    37 RedAO= T EigKep=  5.54D-02  NBF=    27    10
 NBsUse=    37 1.00D-06 EigRej= -1.00D+00 NBFU=    27    10
 Initial guess from the checkpoint file:  "/tmp/Gau-16266.chk"
 B after Tr=     0.000000    0.000000   -0.000000
         Rot=    1.000000    0.000000   -0.000000   -0.000740 Ang=  -0.08 deg.
 Initial guess orbital symmetries:
       Occupied  (A') (A') (A') (A") (A') (A') (A') (A') (A') (A')
                 (A") (A') (A')
       Virtual   (A") (A') (A') (A') (A') (A") (A") (A') (A') (A')
                 (A") (A') (A") (A') (A') (A') (A") (A') (A') (A")
                 (A') (A") (A') (A')
 ExpMin= 1.22D-01 ExpMax= 1.04D+04 ExpMxC= 1.57D+03 IAcc=2 IRadAn=         4 AccDes= 0.00D+00
 Harris functional with IExCor=  402 and IRadAn=       4 diagonalized for initial guess.
 HarFok:  IExCor=  402 AccDes= 0.00D+00 IRadAn=         4 IDoV= 1 UseB2=F ITyADJ=14
 ICtDFT=  3500011 ScaDFX=  1.000000  1.000000  1.000000  1.000000
 FoFCou: FMM=F IPFlag=           0 FMFlag=      100000 FMFlg1=           0
         NFxFlg=           0 DoJE=T BraDBF=F KetDBF=T FulRan=T
         wScrn=  0.000000 ICntrl=       500 IOpCl=  0 I1Cent=   200000004 NGrid=           0
         NMat0=    1 NMatS0=      1 NMatT0=    0 NMatD0=    1 NMtDS0=    0 NMtDT0=    0
 Petite list used in FoFCou.
 Keep R1 ints in memory in symmetry-blocked form, NReq=7153137.
 Requested convergence on RMS density matrix=1.00D-08 within 128 cycles.
 Requested convergence on MAX density matrix=1.00D-06.
 Requested convergence on             energy=1.00D-06.
 No special actions if energy rises.
 Integral accuracy reduced to 1.0D-05 until final iterations.
 Initial convergence to 1.0D-05 achieved.  Increase integral accuracy.
 SCF Done:  E(RB3LYP) =  -535.591612340     A.U. after   13 cycles
            NFock= 13  Conv=0.56D-10     -V/T= 2.0026
 Calling FoFJK, ICntrl=      2127 FMM=F ISym2X=1 I1Cent= 0 IOpClX= 0 NMat=1 NMatS=1 NMatT=0.
 ***** Axes restored to original set *****
 -------------------------------------------------------------------
 Center     Atomic                   Forces (Hartrees/Bohr)
 Number     Number              X              Y              Z
 -------------------------------------------------------------------
      1        8           0.000625070   -0.007702777   -0.002613522
      2       17          -0.000986152    0.005399107   -0.000732169
      3        1           0.000361082    0.002303670    0.003345692
 -------------------------------------------------------------------
 Cartesian Forces:  Max     0.007702777 RMS     0.003556588

 GradGradGradGradGradGradGradGradGradGradGradGradGradGradGradGradGradGrad
 Berny optimization.
 FormGI is forming the generalized inverse of G from B-inverse, IUseBI=4.
 Internal  Forces:  Max     0.005534447 RMS     0.003998330
 Search for a saddle point.
 Step number   4 out of a maximum of  100
 All quantities printed in internal units (Hartrees-Bohrs-Radians)
 Swapping is turned off.
 Update second derivatives using D2CorX and points    2    3    4
 The second derivative matrix:
                          R1        R2        A1
           R1           0.00025
           R2           0.00065   0.52103
           A1           0.00008  -0.00049  -0.00263
 ITU=  0  0  0  0
     Eigenvalues ---   -0.00264   0.00025   0.52104
 Eigenvectors required to have negative eigenvalues:
                          A1        R1        R2
   1                   -0.99960   0.02834  -0.00098
 RFO step:  Lambda0=2.410235229D-04 Lambda=-5.45578282D-03.
 Linear search not attempted -- option 19 set.
 Maximum step size (   0.300) exceeded in Quadratic search.
    -- Step size scaled by   0.295
 Iteration  1 RMS(Cart)=  0.08608374 RMS(Int)=  0.05206268
 Iteration  2 RMS(Cart)=  0.04292327 RMS(Int)=  0.00001171
 Iteration  3 RMS(Cart)=  0.00001318 RMS(Int)=  0.00000000
 Iteration  4 RMS(Cart)=  0.00000000 RMS(Int)=  0.00000000
 ClnCor:  largest displacement from symmetrization is 2.70D-15 for atom     3.
 Variable       Old X    -DE/DX   Delta X   Delta X   Delta X     New X
                                 (Linear)    (Quad)   (Total)
    R1        5.83952  -0.00553   0.00000  -0.28989  -0.28989   5.54963
    R2        1.84642   0.00404   0.00000   0.00269   0.00269   1.84911
    A1        2.11309  -0.00099   0.00000   0.07719   0.07719   2.19028
         Item               Value     Threshold  Converged?
 Maximum Force            0.005534     0.000450     NO 
 RMS     Force            0.003998     0.000300     NO 
 Maximum Displacement     0.151527     0.001800     NO 
 RMS     Displacement     0.122760     0.001200     NO 
 Predicted change in Energy=-1.536311D-03
 GradGradGradGradGradGradGradGradGradGradGradGradGradGradGradGradGradGrad

                          Input orientation:                          
 ---------------------------------------------------------------------
 Center     Atomic      Atomic             Coordinates (Angstroms)
 Number     Number       Type             X           Y           Z
 ---------------------------------------------------------------------
      1          8           0       -1.339789    2.671994   -0.217031
      2         17           0       -0.803735   -0.178781    0.241412
      3          1           0       -1.302129    3.373828    0.463770
 ---------------------------------------------------------------------
                    Distance matrix (angstroms):
                    1          2          3
     1  O    0.000000
     2  Cl   2.936739   0.000000
     3  H    0.978509   3.594282   0.000000
 Stoichiometry    ClHO
 Framework group  CS[SG(ClHO)]
 Deg. of freedom     3
 Full point group                 CS      NOp   2
 Largest Abelian subgroup         CS      NOp   2
 Largest concise Abelian subgroup C1      NOp   1
                         Standard orientation:                         
 ---------------------------------------------------------------------
 Center     Atomic      Atomic             Coordinates (Angstroms)
 Number     Number       Type             X           Y           Z
 ---------------------------------------------------------------------
      1          8           0        0.030642    1.898324    0.000000
      2         17           0        0.030642   -1.038415   -0.000000
      3          1           0       -0.766038    2.466463    0.000000
 ---------------------------------------------------------------------
 Rotational constants (GHZ):         862.1773720           4.9895075           4.9607989
 Standard basis: SVP (5D, 7F)
 There are    29 symmetry adapted cartesian basis functions of A'  symmetry.
 There are    10 symmetry adapted cartesian basis functions of A"  symmetry.
 There are    27 symmetry adapted basis functions of A'  symmetry.
 There are    10 symmetry adapted basis functions of A"  symmetry.
    37 basis functions,    69 primitive gaussians,    39 cartesian basis functions
    13 alpha electrons       13 beta electrons
       nuclear repulsion energy        31.3353907129 Hartrees.
 NAtoms=    3 NActive=    3 NUniq=    3 SFac= 1.00D+00 NAtFMM=   60 NAOKFM=F Big=F
 Integral buffers will be    131072 words long.
 Raffenetti 2 integral format.
 Two-electron integral symmetry is turned on.
 Nuclear repulsion after empirical dispersion term =       31.3341777257 Hartrees.
 One-electron integrals computed using PRISM.
 NBasis=    37 RedAO= T EigKep=  5.55D-02  NBF=    27    10
 NBsUse=    37 1.00D-06 EigRej= -1.00D+00 NBFU=    27    10
 Initial guess from the checkpoint file:  "/tmp/Gau-16266.chk"
 B after Tr=     0.000000    0.000000   -0.000000
         Rot=    1.000000    0.000000   -0.000000    0.000604 Ang=   0.07 deg.
 Initial guess orbital symmetries:
       Occupied  (A') (A') (A') (A") (A') (A') (A') (A') (A') (A')
                 (A") (A') (A')
       Virtual   (A") (A') (A') (A') (A') (A") (A") (A') (A') (A')
                 (A") (A') (A") (A') (A') (A') (A") (A') (A') (A")
                 (A') (A") (A') (A')
 ExpMin= 1.22D-01 ExpMax= 1.04D+04 ExpMxC= 1.57D+03 IAcc=2 IRadAn=         4 AccDes= 0.00D+00
 Harris functional with IExCor=  402 and IRadAn=       4 diagonalized for initial guess.
 HarFok:  IExCor=  402 AccDes= 0.00D+00 IRadAn=         4 IDoV= 1 UseB2=F ITyADJ=14
 ICtDFT=  3500011 ScaDFX=  1.000000  1.000000  1.000000  1.000000
 FoFCou: FMM=F IPFlag=           0 FMFlag=      100000 FMFlg1=           0
         NFxFlg=           0 DoJE=T BraDBF=F KetDBF=T FulRan=T
         wScrn=  0.000000 ICntrl=       500 IOpCl=  0 I1Cent=   200000004 NGrid=           0
         NMat0=    1 NMatS0=      1 NMatT0=    0 NMatD0=    1 NMtDS0=    0 NMtDT0=    0
 Petite list used in FoFCou.
 Keep R1 ints in memory in symmetry-blocked form, NReq=7153137.
 Requested convergence on RMS density matrix=1.00D-08 within 128 cycles.
 Requested convergence on MAX density matrix=1.00D-06.
 Requested convergence on             energy=1.00D-06.
 No special actions if energy rises.
 Integral accuracy reduced to 1.0D-05 until final iterations.
 Initial convergence to 1.0D-05 achieved.  Increase integral accuracy.
 SCF Done:  E(RB3LYP) =  -535.593088583     A.U. after   14 cycles
            NFock= 14  Conv=0.17D-08     -V/T= 2.0026
 Calling FoFJK, ICntrl=      2127 FMM=F ISym2X=1 I1Cent= 0 IOpClX= 0 NMat=1 NMatS=1 NMatT=0.
 ***** Axes restored to original set *****
 -------------------------------------------------------------------
 Center     Atomic                   Forces (Hartrees/Bohr)
 Number     Number              X              Y              Z
 -------------------------------------------------------------------
      1        8           0.000697624   -0.006702536   -0.001554915
      2       17          -0.000872926    0.004731186   -0.000682627
      3        1           0.000175302    0.001971350    0.002237542
 -------------------------------------------------------------------
 Cartesian Forces:  Max     0.006702536 RMS     0.002988200

 GradGradGradGradGradGradGradGradGradGradGradGradGradGradGradGradGradGrad
 Berny optimization.
 FormGI is forming the generalized inverse of G from B-inverse, IUseBI=4.
 Internal  Forces:  Max     0.004858399 RMS     0.003299668
 Search for a saddle point.
 Step number   5 out of a maximum of  100
 All quantities printed in internal units (Hartrees-Bohrs-Radians)
 Swapping is turned off.
 Update second derivatives using D2CorX and points    3    4    5
 The second derivative matrix:
                          R1        R2        A1
           R1           0.00267
           R2           0.00106   0.52108
           A1           0.00124  -0.00040  -0.00247
 ITU=  0  0  0  0
     Eigenvalues ---   -0.00275   0.00295   0.52108
 Eigenvectors required to have negative eigenvalues:
                          A1        R1        R2
   1                   -0.97492   0.22257  -0.00119
 RFO step:  Lambda0=1.466567316D-04 Lambda=-3.59603404D-03.
 Linear search not attempted -- option 19 set.
 Maximum step size (   0.300) exceeded in Quadratic search.
    -- Step size scaled by   0.388
 Iteration  1 RMS(Cart)=  0.16988210 RMS(Int)=  0.03694545
 Iteration  2 RMS(Cart)=  0.03142115 RMS(Int)=  0.00000052
 Iteration  3 RMS(Cart)=  0.00000040 RMS(Int)=  0.00000000
 ClnCor:  largest displacement from symmetrization is 3.69D-15 for atom     3.
 Variable       Old X    -DE/DX   Delta X   Delta X   Delta X     New X
                                 (Linear)    (Quad)   (Total)
    R1        5.54963  -0.00486   0.00000  -0.26034  -0.26034   5.28929
    R2        1.84911   0.00298   0.00000   0.00262   0.00262   1.85173
    A1        2.19028  -0.00044   0.00000  -0.14905  -0.14905   2.04123
         Item               Value     Threshold  Converged?
 Maximum Force            0.004858     0.000450     NO 
 RMS     Force            0.003300     0.000300     NO 
 Maximum Displacement     0.242145     0.001800     NO 
 RMS     Displacement     0.195725     0.001200     NO 
 Predicted change in Energy=-1.226564D-03
 GradGradGradGradGradGradGradGradGradGradGradGradGradGradGradGradGradGrad

                          Input orientation:                          
 ---------------------------------------------------------------------
 Center     Atomic      Atomic             Coordinates (Angstroms)
 Number     Number       Type             X           Y           Z
 ---------------------------------------------------------------------
      1          8           0       -1.345919    2.649846   -0.261636
      2         17           0       -0.820750   -0.050643    0.253930
      3          1           0       -1.278984    3.267838    0.495856
 ---------------------------------------------------------------------
                    Distance matrix (angstroms):
                    1          2          3
     1  O    0.000000
     2  Cl   2.798973   0.000000
     3  H    0.979893   3.358694   0.000000
 Stoichiometry    ClHO
 Framework group  CS[SG(ClHO)]
 Deg. of freedom     3
 Full point group                 CS      NOp   2
 Largest Abelian subgroup         CS      NOp   2
 Largest concise Abelian subgroup C1      NOp   1
                         Standard orientation:                         
 ---------------------------------------------------------------------
 Center     Atomic      Atomic             Coordinates (Angstroms)
 Number     Number       Type             X           Y           Z
 ---------------------------------------------------------------------
      1          8           0        0.033594    1.813015    0.000000
      2         17           0        0.033594   -0.985958   -0.000000
      3          1           0       -0.839854    2.257175    0.000000
 ---------------------------------------------------------------------
 Rotational constants (GHZ):         713.7283612           5.5201042           5.4777384
 Standard basis: SVP (5D, 7F)
 There are    29 symmetry adapted cartesian basis functions of A'  symmetry.
 There are    10 symmetry adapted cartesian basis functions of A"  symmetry.
 There are    27 symmetry adapted basis functions of A'  symmetry.
 There are    10 symmetry adapted basis functions of A"  symmetry.
    37 basis functions,    69 primitive gaussians,    39 cartesian basis functions
    13 alpha electrons       13 beta electrons
       nuclear repulsion energy        32.7110343030 Hartrees.
 NAtoms=    3 NActive=    3 NUniq=    3 SFac= 1.00D+00 NAtFMM=   60 NAOKFM=F Big=F
 Integral buffers will be    131072 words long.
 Raffenetti 2 integral format.
 Two-electron integral symmetry is turned on.
 Nuclear repulsion after empirical dispersion term =       32.7097016811 Hartrees.
 One-electron integrals computed using PRISM.
 NBasis=    37 RedAO= T EigKep=  5.57D-02  NBF=    27    10
 NBsUse=    37 1.00D-06 EigRej= -1.00D+00 NBFU=    27    10
 Initial guess from the checkpoint file:  "/tmp/Gau-16266.chk"
 B after Tr=    -0.000000   -0.000000   -0.000000
         Rot=    0.999994    0.000000   -0.000000   -0.003479 Ang=  -0.40 deg.
 Initial guess orbital symmetries:
       Occupied  (A') (A') (A') (A") (A') (A') (A') (A') (A') (A')
                 (A") (A') (A')
       Virtual   (A") (A') (A') (A') (A') (A") (A") (A') (A') (A')
                 (A") (A') (A") (A') (A') (A') (A") (A') (A') (A")
                 (A') (A") (A') (A')
 ExpMin= 1.22D-01 ExpMax= 1.04D+04 ExpMxC= 1.57D+03 IAcc=2 IRadAn=         4 AccDes= 0.00D+00
 Harris functional with IExCor=  402 and IRadAn=       4 diagonalized for initial guess.
 HarFok:  IExCor=  402 AccDes= 0.00D+00 IRadAn=         4 IDoV= 1 UseB2=F ITyADJ=14
 ICtDFT=  3500011 ScaDFX=  1.000000  1.000000  1.000000  1.000000
 FoFCou: FMM=F IPFlag=           0 FMFlag=      100000 FMFlg1=           0
         NFxFlg=           0 DoJE=T BraDBF=F KetDBF=T FulRan=T
         wScrn=  0.000000 ICntrl=       500 IOpCl=  0 I1Cent=   200000004 NGrid=           0
         NMat0=    1 NMatS0=      1 NMatT0=    0 NMatD0=    1 NMtDS0=    0 NMtDT0=    0
 Petite list used in FoFCou.
 Keep R1 ints in memory in symmetry-blocked form, NReq=7153137.
 Requested convergence on RMS density matrix=1.00D-08 within 128 cycles.
 Requested convergence on MAX density matrix=1.00D-06.
 Requested convergence on             energy=1.00D-06.
 No special actions if energy rises.
 Integral accuracy reduced to 1.0D-05 until final iterations.
 Initial convergence to 1.0D-05 achieved.  Increase integral accuracy.
 SCF Done:  E(RB3LYP) =  -535.594234839     A.U. after   14 cycles
            NFock= 14  Conv=0.40D-08     -V/T= 2.0026
 Calling FoFJK, ICntrl=      2127 FMM=F ISym2X=1 I1Cent= 0 IOpClX= 0 NMat=1 NMatS=1 NMatT=0.
 ***** Axes restored to original set *****
 -------------------------------------------------------------------
 Center     Atomic                   Forces (Hartrees/Bohr)
 Number     Number              X              Y              Z
 -------------------------------------------------------------------
      1        8           0.000285056   -0.003580055   -0.001240246
      2       17          -0.000518707    0.002847233   -0.000379828
      3        1           0.000233651    0.000732822    0.001620074
 -------------------------------------------------------------------
 Cartesian Forces:  Max     0.003580055 RMS     0.001705305

 GradGradGradGradGradGradGradGradGradGradGradGradGradGradGradGradGradGrad
 Berny optimization.
 FormGI is forming the generalized inverse of G from B-inverse, IUseBI=4.
 Internal  Forces:  Max     0.002914165 RMS     0.002020155
 Search for a saddle point.
 Step number   6 out of a maximum of  100
 All quantities printed in internal units (Hartrees-Bohrs-Radians)
 Swapping is turned off.
 Second derivative matrix not updated -- analytic derivatives used.
 The second derivative matrix:
                          R1        R2        A1
           R1           0.00267
           R2           0.00106   0.52108
           A1           0.00124  -0.00040  -0.00247
 ITU=  0  0  0  0
     Eigenvalues ---   -0.00275   0.00295   0.52108
 Eigenvectors required to have negative eigenvalues:
                          A1        R1        R2
   1                   -0.97492   0.22257  -0.00119
 RFO step:  Lambda0=1.419610888D-05 Lambda=-1.90585702D-03.
 Linear search not attempted -- option 19 set.
 Maximum step size (   0.300) exceeded in Quadratic search.
    -- Step size scaled by   0.477
 Iteration  1 RMS(Cart)=  0.10635895 RMS(Int)=  0.05683562
 Iteration  2 RMS(Cart)=  0.04585515 RMS(Int)=  0.00002837
 Iteration  3 RMS(Cart)=  0.00003181 RMS(Int)=  0.00000000
 Iteration  4 RMS(Cart)=  0.00000000 RMS(Int)=  0.00000000
 ClnCor:  largest displacement from symmetrization is 1.02D-15 for atom     3.
 Variable       Old X    -DE/DX   Delta X   Delta X   Delta X     New X
                                 (Linear)    (Quad)   (Total)
    R1        5.28929  -0.00291   0.00000  -0.29817  -0.29817   4.99113
    R2        1.85173   0.00173   0.00000   0.00216   0.00216   1.85388
    A1        2.04123  -0.00087   0.00000  -0.03303  -0.03303   2.00820
         Item               Value     Threshold  Converged?
 Maximum Force            0.002914     0.000450     NO 
 RMS     Force            0.002020     0.000300     NO 
 Maximum Displacement     0.210426     0.001800     NO 
 RMS     Displacement     0.151433     0.001200     NO 
 Predicted change in Energy=-7.712779D-04
 GradGradGradGradGradGradGradGradGradGradGradGradGradGradGradGradGradGrad

                          Input orientation:                          
 ---------------------------------------------------------------------
 Center     Atomic      Atomic             Coordinates (Angstroms)
 Number     Number       Type             X           Y           Z
 ---------------------------------------------------------------------
      1          8           0       -1.339618    2.601443   -0.266954
      2         17           0       -0.838292    0.060710    0.251918
      3          1           0       -1.267744    3.204888    0.503186
 ---------------------------------------------------------------------
                    Distance matrix (angstroms):
                    1          2          3
     1  O    0.000000
     2  Cl   2.641190   0.000000
     3  H    0.981034   3.183304   0.000000
 Stoichiometry    ClHO
 Framework group  CS[SG(ClHO)]
 Deg. of freedom     3
 Full point group                 CS      NOp   2
 Largest Abelian subgroup         CS      NOp   2
 Largest concise Abelian subgroup C1      NOp   1
                         Standard orientation:                         
 ---------------------------------------------------------------------
 Center     Atomic      Atomic             Coordinates (Angstroms)
 Number     Number       Type             X           Y           Z
 ---------------------------------------------------------------------
      1          8           0        0.034180    1.710949   -0.000000
      2         17           0        0.034180   -0.930241    0.000000
      3          1           0       -0.854494    2.126502   -0.000000
 ---------------------------------------------------------------------
 Rotational constants (GHZ):         689.4029190           6.2000397           6.1447776
 Standard basis: SVP (5D, 7F)
 There are    29 symmetry adapted cartesian basis functions of A'  symmetry.
 There are    10 symmetry adapted cartesian basis functions of A"  symmetry.
 There are    27 symmetry adapted basis functions of A'  symmetry.
 There are    10 symmetry adapted basis functions of A"  symmetry.
    37 basis functions,    69 primitive gaussians,    39 cartesian basis functions
    13 alpha electrons       13 beta electrons
       nuclear repulsion energy        34.3896275309 Hartrees.
 NAtoms=    3 NActive=    3 NUniq=    3 SFac= 1.00D+00 NAtFMM=   60 NAOKFM=F Big=F
 Integral buffers will be    131072 words long.
 Raffenetti 2 integral format.
 Two-electron integral symmetry is turned on.
 Nuclear repulsion after empirical dispersion term =       34.3881919414 Hartrees.
 One-electron integrals computed using PRISM.
 NBasis=    37 RedAO= T EigKep=  5.58D-02  NBF=    27    10
 NBsUse=    37 1.00D-06 EigRej= -1.00D+00 NBFU=    27    10
 Initial guess from the checkpoint file:  "/tmp/Gau-16266.chk"
 B after Tr=     0.000000   -0.000000   -0.000000
         Rot=    0.999999    0.000000   -0.000000   -0.001616 Ang=  -0.19 deg.
 Initial guess orbital symmetries:
       Occupied  (A') (A') (A') (A") (A') (A') (A') (A') (A') (A')
                 (A") (A') (A')
       Virtual   (A") (A') (A') (A') (A') (A") (A") (A') (A') (A')
                 (A") (A') (A") (A') (A') (A') (A") (A') (A') (A")
                 (A') (A") (A') (A')
 ExpMin= 1.22D-01 ExpMax= 1.04D+04 ExpMxC= 1.57D+03 IAcc=2 IRadAn=         4 AccDes= 0.00D+00
 Harris functional with IExCor=  402 and IRadAn=       4 diagonalized for initial guess.
 HarFok:  IExCor=  402 AccDes= 0.00D+00 IRadAn=         4 IDoV= 1 UseB2=F ITyADJ=14
 ICtDFT=  3500011 ScaDFX=  1.000000  1.000000  1.000000  1.000000
 FoFCou: FMM=F IPFlag=           0 FMFlag=      100000 FMFlg1=           0
         NFxFlg=           0 DoJE=T BraDBF=F KetDBF=T FulRan=T
         wScrn=  0.000000 ICntrl=       500 IOpCl=  0 I1Cent=   200000004 NGrid=           0
         NMat0=    1 NMatS0=      1 NMatT0=    0 NMatD0=    1 NMtDS0=    0 NMtDT0=    0
 Petite list used in FoFCou.
 Keep R1 ints in memory in symmetry-blocked form, NReq=7153137.
 Requested convergence on RMS density matrix=1.00D-08 within 128 cycles.
 Requested convergence on MAX density matrix=1.00D-06.
 Requested convergence on             energy=1.00D-06.
 No special actions if energy rises.
 Integral accuracy reduced to 1.0D-05 until final iterations.
 EnCoef did     2 forward-backward iterations
 Initial convergence to 1.0D-05 achieved.  Increase integral accuracy.
 SCF Done:  E(RB3LYP) =  -535.594540676     A.U. after   14 cycles
            NFock= 14  Conv=0.65D-08     -V/T= 2.0025
 Calling FoFJK, ICntrl=      2127 FMM=F ISym2X=1 I1Cent= 0 IOpClX= 0 NMat=1 NMatS=1 NMatT=0.
 ***** Axes restored to original set *****
 -------------------------------------------------------------------
 Center     Atomic                   Forces (Hartrees/Bohr)
 Number     Number              X              Y              Z
 -------------------------------------------------------------------
      1        8          -0.000449126    0.001122280   -0.001294466
      2       17           0.000319786   -0.001524301    0.000400274
      3        1           0.000129340    0.000402021    0.000894191
 -------------------------------------------------------------------
 Cartesian Forces:  Max     0.001524301 RMS     0.000862862

 GradGradGradGradGradGradGradGradGradGradGradGradGradGradGradGradGradGrad
 Berny optimization.
 FormGI is forming the generalized inverse of G from B-inverse, IUseBI=4.
 Internal  Forces:  Max     0.001605858 RMS     0.001110216
 Search for a saddle point.
 Step number   7 out of a maximum of  100
 All quantities printed in internal units (Hartrees-Bohrs-Radians)
 Swapping is turned off.
 Update second derivatives using D2CorX and points    5    6    7
 The second derivative matrix:
                          R1        R2        A1
           R1           0.01498
           R2           0.00122   0.52110
           A1           0.00168  -0.00033  -0.00238
 ITU=  0  0  0  0
     Eigenvalues ---   -0.00254   0.01514   0.52110
 Eigenvectors required to have negative eigenvalues:
                          A1        R1        R2
   1                   -0.99544   0.09537  -0.00086
 RFO step:  Lambda0=1.340238843D-04 Lambda=-1.59529040D-04.
 Linear search not attempted -- option 19 set.
 Iteration  1 RMS(Cart)=  0.16834847 RMS(Int)=  0.02554199
 Iteration  2 RMS(Cart)=  0.02591993 RMS(Int)=  0.00051208
 Iteration  3 RMS(Cart)=  0.00053198 RMS(Int)=  0.00000011
 Iteration  4 RMS(Cart)=  0.00000010 RMS(Int)=  0.00000000
 ClnCor:  largest displacement from symmetrization is 1.14D-15 for atom     3.
 Variable       Old X    -DE/DX   Delta X   Delta X   Delta X     New X
                                 (Linear)    (Quad)   (Total)
    R1        4.99113   0.00161   0.00000   0.07972   0.07972   5.07085
    R2        1.85388   0.00096   0.00000   0.00180   0.00180   1.85569
    A1        2.00820  -0.00045   0.00000   0.23263   0.23263   2.24083
         Item               Value     Threshold  Converged?
 Maximum Force            0.001606     0.000450     NO 
 RMS     Force            0.001110     0.000300     NO 
 Maximum Displacement     0.208597     0.001800     NO 
 RMS     Displacement     0.188996     0.001200     NO 
 Predicted change in Energy=-1.021386D-05
 GradGradGradGradGradGradGradGradGradGradGradGradGradGradGradGradGradGrad

                          Input orientation:                          
 ---------------------------------------------------------------------
 Center     Atomic      Atomic             Coordinates (Angstroms)
 Number     Number       Type             X           Y           Z
 ---------------------------------------------------------------------
      1          8           0       -1.320194    2.578452   -0.192606
      2         17           0       -0.830677   -0.026684    0.224711
      3          1           0       -1.294782    3.315273    0.456045
 ---------------------------------------------------------------------
                    Distance matrix (angstroms):
                    1          2          3
     1  O    0.000000
     2  Cl   2.683378   0.000000
     3  H    0.981987   3.381950   0.000000
 Stoichiometry    ClHO
 Framework group  CS[SG(ClHO)]
 Deg. of freedom     3
 Full point group                 CS      NOp   2
 Largest Abelian subgroup         CS      NOp   2
 Largest concise Abelian subgroup C1      NOp   1
                         Standard orientation:                         
 ---------------------------------------------------------------------
 Center     Atomic      Atomic             Coordinates (Angstroms)
 Number     Number       Type             X           Y           Z
 ---------------------------------------------------------------------
      1          8           0        0.029603    1.731062    0.000000
      2         17           0        0.029603   -0.952316   -0.000000
      3          1           0       -0.740082    2.340884    0.000000
 ---------------------------------------------------------------------
 Rotational constants (GHZ):         928.4999121           5.9453917           5.9075643
 Standard basis: SVP (5D, 7F)
 There are    29 symmetry adapted cartesian basis functions of A'  symmetry.
 There are    10 symmetry adapted cartesian basis functions of A"  symmetry.
 There are    27 symmetry adapted basis functions of A'  symmetry.
 There are    10 symmetry adapted basis functions of A"  symmetry.
    37 basis functions,    69 primitive gaussians,    39 cartesian basis functions
    13 alpha electrons       13 beta electrons
       nuclear repulsion energy        33.7910447506 Hartrees.
 NAtoms=    3 NActive=    3 NUniq=    3 SFac= 1.00D+00 NAtFMM=   60 NAOKFM=F Big=F
 Integral buffers will be    131072 words long.
 Raffenetti 2 integral format.
 Two-electron integral symmetry is turned on.
 Nuclear repulsion after empirical dispersion term =       33.7896814411 Hartrees.
 One-electron integrals computed using PRISM.
 NBasis=    37 RedAO= T EigKep=  5.58D-02  NBF=    27    10
 NBsUse=    37 1.00D-06 EigRej= -1.00D+00 NBFU=    27    10
 Initial guess from the checkpoint file:  "/tmp/Gau-16266.chk"
 B after Tr=    -0.000000   -0.000000    0.000000
         Rot=    0.999988   -0.000000    0.000000    0.004996 Ang=   0.57 deg.
 Initial guess orbital symmetries:
       Occupied  (A') (A') (A') (A") (A') (A') (A') (A') (A') (A')
                 (A") (A') (A')
       Virtual   (A") (A') (A') (A') (A') (A") (A") (A') (A') (A")
                 (A') (A') (A") (A') (A') (A') (A") (A') (A') (A")
                 (A') (A") (A') (A')
 ExpMin= 1.22D-01 ExpMax= 1.04D+04 ExpMxC= 1.57D+03 IAcc=2 IRadAn=         4 AccDes= 0.00D+00
 Harris functional with IExCor=  402 and IRadAn=       4 diagonalized for initial guess.
 HarFok:  IExCor=  402 AccDes= 0.00D+00 IRadAn=         4 IDoV= 1 UseB2=F ITyADJ=14
 ICtDFT=  3500011 ScaDFX=  1.000000  1.000000  1.000000  1.000000
 FoFCou: FMM=F IPFlag=           0 FMFlag=      100000 FMFlg1=           0
         NFxFlg=           0 DoJE=T BraDBF=F KetDBF=T FulRan=T
         wScrn=  0.000000 ICntrl=       500 IOpCl=  0 I1Cent=   200000004 NGrid=           0
         NMat0=    1 NMatS0=      1 NMatT0=    0 NMatD0=    1 NMtDS0=    0 NMtDT0=    0
 Petite list used in FoFCou.
 Keep R1 ints in memory in symmetry-blocked form, NReq=7153137.
 Requested convergence on RMS density matrix=1.00D-08 within 128 cycles.
 Requested convergence on MAX density matrix=1.00D-06.
 Requested convergence on             energy=1.00D-06.
 No special actions if energy rises.
 Integral accuracy reduced to 1.0D-05 until final iterations.
 Initial convergence to 1.0D-05 achieved.  Increase integral accuracy.
 SCF Done:  E(RB3LYP) =  -535.594653201     A.U. after   14 cycles
            NFock= 14  Conv=0.95D-08     -V/T= 2.0026
 Calling FoFJK, ICntrl=      2127 FMM=F ISym2X=1 I1Cent= 0 IOpClX= 0 NMat=1 NMatS=1 NMatT=0.
 ***** Axes restored to original set *****
 -------------------------------------------------------------------
 Center     Atomic                   Forces (Hartrees/Bohr)
 Number     Number              X              Y              Z
 -------------------------------------------------------------------
      1        8           0.000274921   -0.001349793    0.000315828
      2       17          -0.000157387    0.000621039   -0.000289866
      3        1          -0.000117534    0.000728754   -0.000025962
 -------------------------------------------------------------------
 Cartesian Forces:  Max     0.001349793 RMS     0.000580931

 GradGradGradGradGradGradGradGradGradGradGradGradGradGradGradGradGradGrad
 Berny optimization.
 FormGI is forming the generalized inverse of G from B-inverse, IUseBI=4.
 Internal  Forces:  Max     0.000962568 RMS     0.000744112
 Search for a saddle point.
 Step number   8 out of a maximum of  100
 All quantities printed in internal units (Hartrees-Bohrs-Radians)
 Swapping is turned off.
 Update second derivatives using D2CorX and points    5    6    7    8
 The second derivative matrix:
                          R1        R2        A1
           R1           0.01431
           R2           0.00240   0.52085
           A1           0.00489  -0.00300  -0.00772
 ITU=  0  0  0  0
     Eigenvalues ---   -0.00878   0.01534   0.52088
 Eigenvectors required to have negative eigenvalues:
                          A1        R1        R2
   1                   -0.97813   0.20791  -0.00648
 RFO step:  Lambda0=1.322878124D-04 Lambda=-1.45033409D-05.
 Linear search not attempted -- option 19 set.
 Iteration  1 RMS(Cart)=  0.08990983 RMS(Int)=  0.00565243
 Iteration  2 RMS(Cart)=  0.00467888 RMS(Int)=  0.00000363
 Iteration  3 RMS(Cart)=  0.00000429 RMS(Int)=  0.00000000
 Iteration  4 RMS(Cart)=  0.00000000 RMS(Int)=  0.00000000
 ClnCor:  largest displacement from symmetrization is 1.09D-15 for atom     3.
 Variable       Old X    -DE/DX   Delta X   Delta X   Delta X     New X
                                 (Linear)    (Quad)   (Total)
    R1        5.07085  -0.00068   0.00000  -0.00419  -0.00419   5.06666
    R2        1.85569   0.00053   0.00000   0.00031   0.00031   1.85599
    A1        2.24083   0.00096   0.00000  -0.12548  -0.12548   2.11535
         Item               Value     Threshold  Converged?
 Maximum Force            0.000963     0.000450     NO 
 RMS     Force            0.000744     0.000300     NO 
 Maximum Displacement     0.095656     0.001800     NO 
 RMS     Displacement     0.091541     0.001200     NO 
 Predicted change in Energy= 5.986782D-05
 GradGradGradGradGradGradGradGradGradGradGradGradGradGradGradGradGradGrad

                          Input orientation:                          
 ---------------------------------------------------------------------
 Center     Atomic      Atomic             Coordinates (Angstroms)
 Number     Number       Type             X           Y           Z
 ---------------------------------------------------------------------
      1          8           0       -1.332061    2.596708   -0.235002
      2         17           0       -0.832402    0.005679    0.239908
      3          1           0       -1.281190    3.264654    0.483245
 ---------------------------------------------------------------------
                    Distance matrix (angstroms):
                    1          2          3
     1  O    0.000000
     2  Cl   2.681162   0.000000
     3  H    0.982149   3.298718   0.000000
 Stoichiometry    ClHO
 Framework group  CS[SG(ClHO)]
 Deg. of freedom     3
 Full point group                 CS      NOp   2
 Largest Abelian subgroup         CS      NOp   2
 Largest concise Abelian subgroup C1      NOp   1
                         Standard orientation:                         
 ---------------------------------------------------------------------
 Center     Atomic      Atomic             Coordinates (Angstroms)
 Number     Number       Type             X           Y           Z
 ---------------------------------------------------------------------
      1          8           0        0.032311    1.733499   -0.000000
      2         17           0        0.032311   -0.947663    0.000000
      3          1           0       -0.807779    2.242288   -0.000000
 ---------------------------------------------------------------------
 Rotational constants (GHZ):         775.0547082           5.9885535           5.9426370
 Standard basis: SVP (5D, 7F)
 There are    29 symmetry adapted cartesian basis functions of A'  symmetry.
 There are    10 symmetry adapted cartesian basis functions of A"  symmetry.
 There are    27 symmetry adapted basis functions of A'  symmetry.
 There are    10 symmetry adapted basis functions of A"  symmetry.
    37 basis functions,    69 primitive gaussians,    39 cartesian basis functions
    13 alpha electrons       13 beta electrons
       nuclear repulsion energy        33.8796145072 Hartrees.
 NAtoms=    3 NActive=    3 NUniq=    3 SFac= 1.00D+00 NAtFMM=   60 NAOKFM=F Big=F
 Integral buffers will be    131072 words long.
 Raffenetti 2 integral format.
 Two-electron integral symmetry is turned on.
 Nuclear repulsion after empirical dispersion term =       33.8782255434 Hartrees.
 One-electron integrals computed using PRISM.
 NBasis=    37 RedAO= T EigKep=  5.59D-02  NBF=    27    10
 NBsUse=    37 1.00D-06 EigRej= -1.00D+00 NBFU=    27    10
 Initial guess from the checkpoint file:  "/tmp/Gau-16266.chk"
 B after Tr=     0.000000    0.000000    0.000000
         Rot=    0.999996    0.000000    0.000000   -0.002661 Ang=  -0.30 deg.
 Initial guess orbital symmetries:
       Occupied  (A') (A') (A') (A") (A') (A') (A') (A') (A') (A')
                 (A") (A') (A')
       Virtual   (A") (A') (A') (A') (A') (A") (A") (A') (A') (A")
                 (A') (A') (A") (A') (A') (A') (A") (A') (A') (A")
                 (A') (A") (A') (A')
 ExpMin= 1.22D-01 ExpMax= 1.04D+04 ExpMxC= 1.57D+03 IAcc=2 IRadAn=         4 AccDes= 0.00D+00
 Harris functional with IExCor=  402 and IRadAn=       4 diagonalized for initial guess.
 HarFok:  IExCor=  402 AccDes= 0.00D+00 IRadAn=         4 IDoV= 1 UseB2=F ITyADJ=14
 ICtDFT=  3500011 ScaDFX=  1.000000  1.000000  1.000000  1.000000
 FoFCou: FMM=F IPFlag=           0 FMFlag=      100000 FMFlg1=           0
         NFxFlg=           0 DoJE=T BraDBF=F KetDBF=T FulRan=T
         wScrn=  0.000000 ICntrl=       500 IOpCl=  0 I1Cent=   200000004 NGrid=           0
         NMat0=    1 NMatS0=      1 NMatT0=    0 NMatD0=    1 NMtDS0=    0 NMtDT0=    0
 Petite list used in FoFCou.
 Keep R1 ints in memory in symmetry-blocked form, NReq=7153137.
 Requested convergence on RMS density matrix=1.00D-08 within 128 cycles.
 Requested convergence on MAX density matrix=1.00D-06.
 Requested convergence on             energy=1.00D-06.
 No special actions if energy rises.
 Integral accuracy reduced to 1.0D-05 until final iterations.
 Initial convergence to 1.0D-05 achieved.  Increase integral accuracy.
 SCF Done:  E(RB3LYP) =  -535.594581326     A.U. after   16 cycles
            NFock= 16  Conv=0.58D-08     -V/T= 2.0026
 Calling FoFJK, ICntrl=      2127 FMM=F ISym2X=1 I1Cent= 0 IOpClX= 0 NMat=1 NMatS=1 NMatT=0.
 ***** Axes restored to original set *****
 -------------------------------------------------------------------
 Center     Atomic                   Forces (Hartrees/Bohr)
 Number     Number              X              Y              Z
 -------------------------------------------------------------------
      1        8           0.000057150   -0.000285155    0.000062375
      2       17          -0.000037932    0.000155532   -0.000065653
      3        1          -0.000019218    0.000129622    0.000003278
 -------------------------------------------------------------------
 Cartesian Forces:  Max     0.000285155 RMS     0.000122742

 GradGradGradGradGradGradGradGradGradGradGradGradGradGradGradGradGradGrad
 Berny optimization.
 FormGI is forming the generalized inverse of G from B-inverse, IUseBI=4.
 Internal  Forces:  Max     0.000179453 RMS     0.000151200
 Search for a saddle point.
 Step number   9 out of a maximum of  100
 All quantities printed in internal units (Hartrees-Bohrs-Radians)
 Swapping is turned off.
 Update second derivatives using D2CorX and points    6    7    8    9
 The second derivative matrix:
                          R1        R2        A1
           R1           0.01774
           R2           0.00116   0.52116
           A1           0.00346  -0.00225  -0.00636
 ITU=  0  0  0  0
     Eigenvalues ---   -0.00686   0.01823   0.52117
 Eigenvectors required to have negative eigenvalues:
                          A1        R1        R2
   1                   -0.99023   0.13940  -0.00452
 RFO step:  Lambda0=5.921779163D-06 Lambda=-1.12488431D-06.
 Linear search not attempted -- option 19 set.
 Iteration  1 RMS(Cart)=  0.02292540 RMS(Int)=  0.00033370
 Iteration  2 RMS(Cart)=  0.00026369 RMS(Int)=  0.00000001
 Iteration  3 RMS(Cart)=  0.00000001 RMS(Int)=  0.00000000
 ClnCor:  largest displacement from symmetrization is 2.70D-15 for atom     1.
 Variable       Old X    -DE/DX   Delta X   Delta X   Delta X     New X
                                 (Linear)    (Quad)   (Total)
    R1        5.06666  -0.00017   0.00000  -0.00363  -0.00363   5.06303
    R2        1.85599   0.00009   0.00000   0.00005   0.00005   1.85604
    A1        2.11535   0.00018   0.00000  -0.03017  -0.03017   2.08518
         Item               Value     Threshold  Converged?
 Maximum Force            0.000179     0.000450     YES
 RMS     Force            0.000151     0.000300     YES
 Maximum Displacement     0.025413     0.001800     NO 
 RMS     Displacement     0.023009     0.001200     NO 
 Predicted change in Energy= 2.401001D-06
 GradGradGradGradGradGradGradGradGradGradGradGradGradGradGradGradGradGrad

                          Input orientation:                          
 ---------------------------------------------------------------------
 Center     Atomic      Atomic             Coordinates (Angstroms)
 Number     Number       Type             X           Y           Z
 ---------------------------------------------------------------------
      1          8           0       -1.334783    2.601002   -0.244650
      2         17           0       -0.833038    0.014833    0.243516
      3          1           0       -1.277833    3.251206    0.489284
 ---------------------------------------------------------------------
                    Distance matrix (angstroms):
                    1          2          3
     1  O    0.000000
     2  Cl   2.679240   0.000000
     3  H    0.982175   3.276027   0.000000
 Stoichiometry    ClHO
 Framework group  CS[SG(ClHO)]
 Deg. of freedom     3
 Full point group                 CS      NOp   2
 Largest Abelian subgroup         CS      NOp   2
 Largest concise Abelian subgroup C1      NOp   1
                         Standard orientation:                         
 ---------------------------------------------------------------------
 Center     Atomic      Atomic             Coordinates (Angstroms)
 Number     Number       Type             X           Y           Z
 ---------------------------------------------------------------------
      1          8           0        0.032888    1.733225    0.000000
      2         17           0        0.032888   -0.946015   -0.000000
      3          1           0       -0.822191    2.216452    0.000000
 ---------------------------------------------------------------------
 Rotational constants (GHZ):         747.0959079           6.0053807           5.9574926
 Standard basis: SVP (5D, 7F)
 There are    29 symmetry adapted cartesian basis functions of A'  symmetry.
 There are    10 symmetry adapted cartesian basis functions of A"  symmetry.
 There are    27 symmetry adapted basis functions of A'  symmetry.
 There are    10 symmetry adapted basis functions of A"  symmetry.
    37 basis functions,    69 primitive gaussians,    39 cartesian basis functions
    13 alpha electrons       13 beta electrons
       nuclear repulsion energy        33.9176528483 Hartrees.
 NAtoms=    3 NActive=    3 NUniq=    3 SFac= 1.00D+00 NAtFMM=   60 NAOKFM=F Big=F
 Integral buffers will be    131072 words long.
 Raffenetti 2 integral format.
 Two-electron integral symmetry is turned on.
[...]
 ---------------------------------------------------------------------
 Rotational constants (GHZ):         750.3526835           6.0072764           5.9595645
 Standard basis: SVP (5D, 7F)
 There are    29 symmetry adapted cartesian basis functions of A'  symmetry.
 There are    10 symmetry adapted cartesian basis functions of A"  symmetry.
 There are    27 symmetry adapted basis functions of A'  symmetry.
 There are    10 symmetry adapted basis functions of A"  symmetry.
    37 basis functions,    69 primitive gaussians,    39 cartesian basis functions
    13 alpha electrons       13 beta electrons
       nuclear repulsion energy        33.9226175629 Hartrees.
 NAtoms=    3 NActive=    3 NUniq=    3 SFac= 1.00D+00 NAtFMM=   60 NAOKFM=F Big=F
 Integral buffers will be    131072 words long.
 Raffenetti 2 integral format.
 Two-electron integral symmetry is turned on.
 Nuclear repulsion after empirical dispersion term =       33.9212215253 Hartrees.
 One-electron integrals computed using PRISM.
 NBasis=    37 RedAO= T EigKep=  5.59D-02  NBF=    27    10
 NBsUse=    37 1.00D-06 EigRej= -1.00D+00 NBFU=    27    10
 Initial guess from the checkpoint file:  "/tmp/Gau-16266.chk"
 B after Tr=     0.000000   -0.000000   -0.000000
         Rot=    1.000000    0.000000   -0.000000   -0.000000 Ang=   0.00 deg.
 Initial guess orbital symmetries:
       Occupied  (A') (A') (A') (A") (A') (A') (A') (A') (A') (A')
                 (A") (A') (A')
       Virtual   (A") (A') (A') (A') (A') (A") (A") (A') (A') (A")
                 (A') (A') (A") (A') (A') (A') (A") (A') (A') (A")
                 (A') (A") (A') (A')
 Keep R1 ints in memory in symmetry-blocked form, NReq=7153137.
 Requested convergence on RMS density matrix=1.00D-08 within 128 cycles.
 Requested convergence on MAX density matrix=1.00D-06.
 Requested convergence on             energy=1.00D-06.
 No special actions if energy rises.
 SCF Done:  E(RB3LYP) =  -535.594579386     A.U. after    1 cycles
            NFock=  1  Conv=0.15D-08     -V/T= 2.0026
 DoSCS=F DFT=T ScalE2(SS,OS)=  1.000000  1.000000
 Range of M.O.s used for correlation:     1    37
 NBasis=    37 NAE=    13 NBE=    13 NFC=     0 NFV=     0
 NROrb=     37 NOA=    13 NOB=    13 NVA=    24 NVB=    24

 **** Warning!!: The smallest alpha delta epsilon is  0.14158234D-01

 Symmetrizing basis deriv contribution to polar:
 IMax=3 JMax=2 DiffMx= 0.00D+00
 G2DrvN: will do     4 centers at a time, making    1 passes.
 Calling FoFCou, ICntrl=  3107 FMM=F I1Cent=   0 AccDes= 0.00D+00.
 End of G2Drv F.D. properties file   721 does not exist.
 End of G2Drv F.D. properties file   722 does not exist.
 End of G2Drv F.D. properties file   788 does not exist.
          IDoAtm=111
          Differentiating once with respect to electric field.
                with respect to dipole field.
          Differentiating once with respect to nuclear coordinates.
 Keep R1 ints in memory in symmetry-blocked form, NReq=7127949.
          There are    12 degrees of freedom in the 1st order CPHF.  IDoFFX=6 NUNeed=     3.
      9 vectors produced by pass  0 Test12= 2.60D-15 8.33D-09 XBig12= 2.32D+03 4.76D+01.
 AX will form     9 AO Fock derivatives at one time.
      9 vectors produced by pass  1 Test12= 2.60D-15 8.33D-09 XBig12= 1.06D+03 8.09D+00.
      9 vectors produced by pass  2 Test12= 2.60D-15 8.33D-09 XBig12= 2.29D+01 2.01D+00.
      9 vectors produced by pass  3 Test12= 2.60D-15 8.33D-09 XBig12= 2.56D-02 6.43D-02.
      9 vectors produced by pass  4 Test12= 2.60D-15 8.33D-09 XBig12= 2.25D-05 1.51D-03.
      7 vectors produced by pass  5 Test12= 2.60D-15 8.33D-09 XBig12= 1.71D-08 3.34D-05.
      4 vectors produced by pass  6 Test12= 2.60D-15 8.33D-09 XBig12= 7.24D-12 9.05D-07.
      2 vectors produced by pass  7 Test12= 2.60D-15 8.33D-09 XBig12= 4.15D-15 1.85D-08.
 InvSVY:  IOpt=1 It=  1 EMax= 2.22D-16
 Solved reduced A of dimension    58 with     9 vectors.
 Isotropic polarizability for W=    0.000000       24.84 Bohr**3.
 End of Minotr F.D. properties file   721 does not exist.
 End of Minotr F.D. properties file   722 does not exist.
 End of Minotr F.D. properties file   788 does not exist.

 **********************************************************************

            Population analysis using the SCF density.

 **********************************************************************

 Orbital symmetries:
       Occupied  (A') (A') (A') (A") (A') (A') (A') (A') (A') (A')
                 (A") (A') (A')
       Virtual   (A") (A') (A') (A') (A') (A") (A") (A') (A') (A")
                 (A') (A') (A") (A') (A') (A') (A") (A') (A') (A")
                 (A') (A") (A') (A')
 The electronic state is 1-A'.
 Alpha  occ. eigenvalues -- -101.51667 -19.20761  -9.46719  -7.24011  -7.22491
 Alpha  occ. eigenvalues --   -7.22442  -0.97004  -0.78298  -0.46508  -0.34896
 Alpha  occ. eigenvalues --   -0.32212  -0.31124  -0.28409
 Alpha virt. eigenvalues --   -0.26993   0.04804   0.45344   0.54901   0.72306
 Alpha virt. eigenvalues --    0.76108   0.76579   0.76831   0.78065   0.82975
 Alpha virt. eigenvalues --    0.83642   0.85138   0.91206   0.91916   1.03730
 Alpha virt. eigenvalues --    1.15874   1.39054   1.46662   2.13049   2.58853
 Alpha virt. eigenvalues --    2.59741   2.90031   2.92700   3.62916
          Condensed to atoms (all electrons):
               1          2          3
     1  O    7.888312  -0.007584   0.270596
     2  Cl  -0.007584  17.034805   0.006246
     3  H    0.270596   0.006246   0.538365
 Mulliken charges:
               1
     1  O   -0.151325
     2  Cl  -0.033468
     3  H    0.184793
 Sum of Mulliken charges =   0.00000
 Mulliken charges with hydrogens summed into heavy atoms:
               1
     1  O    0.033468
     2  Cl  -0.033468
 APT charges:
               1
     1  O   -0.255037
     2  Cl  -0.047373
     3  H    0.302410
 Sum of APT charges =   0.00000
 APT charges with hydrogens summed into heavy atoms:
               1
     1  O    0.047373
     2  Cl  -0.047373
 Electronic spatial extent (au):  <R**2>=            196.2962
 Charge=              0.0000 electrons
 Dipole moment (field-independent basis, Debye):
    X=             -1.4819    Y=              1.3541    Z=             -0.0000  Tot=              2.0074
 Quadrupole moment (field-independent basis, Debye-Ang):
   XX=            -17.3378   YY=            -15.2510   ZZ=            -16.0025
   XY=             -3.5514   XZ=             -0.0000   YZ=             -0.0000
 Traceless Quadrupole moment (field-independent basis, Debye-Ang):
   XX=             -1.1407   YY=              0.9461   ZZ=              0.1946
   XY=             -3.5514   XZ=             -0.0000   YZ=             -0.0000
 Octapole moment (field-independent basis, Debye-Ang**2):
  XXX=             -1.6154  YYY=             14.4052  ZZZ=              0.0000  XYY=             -8.2849
  XXY=              4.2005  XXZ=              0.0000  XZZ=             -0.1429  YZZ=              0.8270
  YYZ=              0.0000  XYZ=              0.0000
 Hexadecapole moment (field-independent basis, Debye-Ang**3):
 XXXX=            -17.7606 YYYY=           -174.0460 ZZZZ=            -13.0370 XXXY=              0.3123
 XXXZ=             -0.0000 YYYX=            -15.5787 YYYZ=             -0.0000 ZZZX=             -0.0000
 ZZZY=             -0.0000 XXYY=            -29.9964 XXZZ=             -5.3009 YYZZ=            -31.1872
 XXYZ=             -0.0000 YYXZ=             -0.0000 ZZXY=              0.8275
 N-N= 3.392122152526D+01 E-N=-1.341242692450D+03  KE= 5.342273738318D+02
 Symmetry A'   KE= 4.885605239470D+02
 Symmetry A"   KE= 4.566684988479D+01
  Exact polarizability:  10.531  -4.039  55.638  -0.000   0.000   8.359
 Approx polarizability:  13.342  -5.490 506.869   0.000   0.000  12.689
 Calling FoFJK, ICntrl=    100127 FMM=F ISym2X=1 I1Cent= 0 IOpClX= 0 NMat=1 NMatS=1 NMatT=0.
 Full mass-weighted force constant matrix:
 Low frequencies --- -258.1045    0.0015    0.0054    0.0054    3.0322    3.4631
 Low frequencies ---   15.6807  201.4474 3668.2964
 ******    1 imaginary frequencies (negative Signs) ****** 
 Diagonal vibrational polarizability:
       11.7633749      30.6509014       0.0000000
 Harmonic frequencies (cm**-1), IR intensities (KM/Mole), Raman scattering
 activities (A**4/AMU), depolarization ratios for plane and unpolarized
 incident light, reduced masses (AMU), force constants (mDyne/A),
 and normal coordinates:
                      1                      2                      3
                     A'                     A'                     A'
 Frequencies --   -258.1045               201.4474              3668.2964
 Red. masses --      1.1252                 9.2008                 1.0671
 Frc consts  --      0.0442                 0.2200                 8.4600
 IR Inten    --    102.7828                 1.1010                81.8217
  Atom  AN      X      Y      Z        X      Y      Z        X      Y      Z
     1   8    -0.05  -0.07  -0.00    -0.02   0.59   0.00    -0.05   0.03  -0.00
     2  17     0.01   0.01   0.00     0.01  -0.29  -0.00     0.00   0.00   0.00
     3   1     0.48   0.87   0.00     0.07   0.75   0.00     0.87  -0.49   0.00

 -------------------
 - Thermochemistry -
 -------------------
 Temperature   298.150 Kelvin.  Pressure   1.00000 Atm.
 Atom     1 has atomic number  8 and mass  15.99491
 Atom     2 has atomic number 17 and mass  34.96885
 Atom     3 has atomic number  1 and mass   1.00783
 Molecular mass:    51.97159 amu.
 Principal axes and moments of inertia in atomic units:
                           1         2         3
     Eigenvalues --     2.40519 300.42586 302.83105
           X           -0.02349   0.99972  -0.00000
           Y            0.99972   0.02349  -0.00000
           Z            0.00000   0.00000   1.00000
 This molecule is an asymmetric top.
 Rotational symmetry number  1.
 Rotational temperatures (Kelvin)     36.01125     0.28830     0.28601
 Rotational constants (GHZ):         750.35268     6.00728     5.95956
    1 imaginary frequencies ignored.
 Zero-point vibrational energy      23146.2 (Joules/Mol)
                                    5.53208 (Kcal/Mol)
 Warning -- explicit consideration of   1 degrees of freedom as
           vibrations may cause significant error
 Vibrational temperatures:    289.84  5277.86
          (Kelvin)
 
 Zero-point correction=                           0.008816 (Hartree/Particle)
 Thermal correction to Energy=                    0.012207
 Thermal correction to Enthalpy=                  0.013151
 Thermal correction to Gibbs Free Energy=        -0.015313
 Sum of electronic and zero-point Energies=           -535.585763
 Sum of electronic and thermal Energies=              -535.582372
 Sum of electronic and thermal Enthalpies=            -535.581428
 Sum of electronic and thermal Free Energies=         -535.609892
 
                     E (Thermal)             CV                S
                      KCal/Mol        Cal/Mol-Kelvin    Cal/Mol-Kelvin
 Total                    7.660              7.799             59.907
 Electronic               0.000              0.000              0.000
 Translational            0.889              2.981             37.767
 Rotational               0.889              2.981             20.020
 Vibrational              5.883              1.838              2.120
 Vibration     1          0.638              1.838              2.120
                       Q            Log10(Q)             Ln(Q)
 Total Bot       0.110499D+08          7.043357         16.217928
 Total V=0       0.125429D+12         11.098397         25.555004
 Vib (Bot)       0.141698D-03         -3.848635         -8.861811
 Vib (Bot)    1  0.989263D+00         -0.004688         -0.010795
 Vib (V=0)       0.160844D+01          0.206405          0.475265
 Vib (V=0)    1  0.160844D+01          0.206405          0.475265
 Electronic      0.100000D+01          0.000000          0.000000
 Translational   0.147266D+08          7.168103         16.505167
 Rotational      0.529528D+04          3.723889          8.574572
 ***** Axes restored to original set *****
 -------------------------------------------------------------------
 Center     Atomic                   Forces (Hartrees/Bohr)
 Number     Number              X              Y              Z
 -------------------------------------------------------------------
      1        8           0.000000459   -0.000003371   -0.000000276
      2       17          -0.000000734    0.000001825   -0.000002124
      3        1           0.000000275    0.000001546    0.000002400
 -------------------------------------------------------------------
 Cartesian Forces:  Max     0.000003371 RMS     0.000001772
 FormGI is forming the generalized inverse of G from B-inverse, IUseBI=4.

 GradGradGradGradGradGradGradGradGradGradGradGradGradGradGradGradGradGrad
 Berny optimization.
 Internal  Forces:  Max     0.000002190 RMS     0.000001798
 Search for a saddle point.
 Step number   1 out of a maximum of    2
 All quantities printed in internal units (Hartrees-Bohrs-Radians)
 Swapping is turned off.
 Second derivative matrix not updated -- analytic derivatives used.
 The second derivative matrix:
                          R1        R2        A1
           R1           0.01740
           R2           0.00158   0.48282
           A1           0.00306  -0.00238  -0.00749
 ITU=  0
     Eigenvalues ---   -0.00788   0.01777   0.48284
 Eigenvectors required to have negative eigenvalues:
                          A1        R1        R2
   1                   -0.99269   0.12058  -0.00521
 Angle between quadratic step and forces=  82.58 degrees.
 Linear search not attempted -- option 19 set.
 Iteration  1 RMS(Cart)=  0.00013468 RMS(Int)=  0.00000001
 Iteration  2 RMS(Cart)=  0.00000001 RMS(Int)=  0.00000000
 ClnCor:  largest displacement from symmetrization is 4.97D-16 for atom     3.
 Variable       Old X    -DE/DX   Delta X   Delta X   Delta X     New X
                                 (Linear)    (Quad)   (Total)
    R1        5.06178  -0.00000   0.00000  -0.00009  -0.00009   5.06169
    R2        1.85606   0.00000   0.00000   0.00000   0.00000   1.85606
    A1        2.08887   0.00000   0.00000  -0.00015  -0.00015   2.08872
         Item               Value     Threshold  Converged?
 Maximum Force            0.000002     0.000450     YES
 RMS     Force            0.000002     0.000300     YES
 Maximum Displacement     0.000149     0.001800     YES
 RMS     Displacement     0.000135     0.001200     YES
 Predicted change in Energy=-3.543786D-11
 Optimization completed.
    -- Stationary point found.
                           ----------------------------
                           !   Optimized Parameters   !
                           ! (Angstroms and Degrees)  !
 --------------------------                            --------------------------
 ! Name  Definition              Value          Derivative Info.                !
 --------------------------------------------------------------------------------
 ! R1    R(1,2)                  2.6786         -DE/DX =    0.0                 !
 ! R2    R(1,3)                  0.9822         -DE/DX =    0.0                 !
 ! A1    A(2,1,3)              119.6834         -DE/DX =    0.0                 !
 --------------------------------------------------------------------------------
 GradGradGradGradGradGradGradGradGradGradGradGradGradGradGradGradGradGrad


 ----------------------------------------------------------------------

 Electric dipole moment (input orientation):
 (Debye = 10**-18 statcoulomb cm , SI units = C m)
                  (au)            (Debye)         (10**-30 SI)
   Tot        0.789757D+00      0.200736D+01      0.669583D+01
   x          0.882511D-03      0.224312D-02      0.748224D-02
   y          0.639264D+00      0.162485D+01      0.541991D+01
   z          0.463742D+00      0.117871D+01      0.393176D+01

 Dipole polarizability, Alpha (input orientation).
 (esu units = cm**3 , SI units = C**2 m**2 J**-1)
 Alpha(0;0):
               (au)            (10**-24 esu)      (10**-40 SI)
   iso        0.248424D+02      0.368126D+01      0.409596D+01
   aniso      0.467579D+02      0.692881D+01      0.770934D+01
   xx         0.981872D+01      0.145498D+01      0.161889D+01
   yx        -0.795190D+01     -0.117835D+01     -0.131109D+01
   yy         0.541931D+02      0.803059D+01      0.893524D+01
   zx         0.111426D+01      0.165116D+00      0.183717D+00
   zy        -0.425137D+01     -0.629988D+00     -0.700956D+00
   zz         0.105154D+02      0.155822D+01      0.173375D+01

 ----------------------------------------------------------------------

 Dipole orientation:
     8         -2.52393192          3.25907716          3.70431112
    17         -1.57477200         -0.35501853          0.28978147
     1         -2.41998177          2.86326845          5.51469308

 Electric dipole moment (dipole orientation):
 (Debye = 10**-18 statcoulomb cm , SI units = C m)
                  (au)            (Debye)         (10**-30 SI)
   Tot        0.789757D+00      0.200736D+01      0.669583D+01
   x          0.000000D+00      0.000000D+00      0.000000D+00
   y          0.000000D+00      0.000000D+00      0.000000D+00
   z          0.789757D+00      0.200736D+01      0.669583D+01

 Dipole polarizability, Alpha (dipole orientation).
 (esu units = cm**3 , SI units = C**2 m**2 J**-1)
 Alpha(0;0):
               (au)            (10**-24 esu)      (10**-40 SI)
   iso        0.248424D+02      0.368126D+01      0.409596D+01
   aniso      0.467579D+02      0.692881D+01      0.770934D+01
   xx         0.982530D+01      0.145596D+01      0.161997D+01
   yx        -0.558465D+01     -0.827559D+00     -0.920784D+00
   yy         0.296232D+02      0.438970D+01      0.488420D+01
   zx        -0.579798D+01     -0.859172D+00     -0.955958D+00
   zy         0.220768D+02      0.327145D+01      0.363998D+01
   zz         0.350787D+02      0.519813D+01      0.578370D+01

 ----------------------------------------------------------------------
 1\1\GINC-NODE51\Freq\RB3LYP\SVP\Cl1H1O1\ROOT\06-Mar-2025\0\\#N Geom=Al
 lCheck Guess=TCheck SCRF=Check GenChk RB3LYP/SVP Freq\\ts-520.gjf\\0,1
 \O,-1.334398572,2.6001599436,-0.2434565223\Cl,-0.8330543829,0.01428451
 19,0.2430436062\H,-1.2782006776,3.2525966862,0.4885634168\\Version=EM6
 4L-G16RevA.03\State=1-A'\HF=-535.5945794\RMSD=1.535e-09\RMSF=1.772e-06
 \ZeroPoint=0.0088159\Thermal=0.0122069\Dipole=0.0008825,0.639264,0.463
 7415\DipoleDeriv=-0.3160145,-0.0179988,0.0147311,0.0276164,-0.3002147,
 0.1448226,0.0475272,-0.0686004,-0.1488821,-0.0403481,0.0066783,0.00133
 11,0.0002149,-0.0590603,-0.0129811,-0.0033158,0.0172594,-0.0427114,0.3
 563626,0.0113205,-0.0160623,-0.0278314,0.3592749,-0.1318415,-0.0442114
 ,0.051341,0.1915935\Polar=9.818715,-7.9518996,54.1931027,1.11426,-4.25
 13695,10.5153633\Quadrupole=-0.0358496,1.7124471,-1.6765974,0.1962296,
 -0.7035582,2.0452937\PG=CS [SG(Cl1H1O1)]\NImag=1\\0.00188263,0.0166763
 4,0.22311506,0.02071810,0.23842569,0.26837343,-0.00047920,0.00250102,-
 0.00041092,0.00056719,0.00280641,-0.01447052,0.00273169,-0.00307799,0.
 01645624,-0.00019135,0.00130286,0.00003437,0.00041465,-0.00257365,0.00
 009526,-0.00140343,-0.01917736,-0.02030718,-0.00008799,0.00027159,-0.0
 0022330,0.00149142,-0.01948275,-0.20864454,-0.24115738,0.00057697,-0.0
 0198572,0.00127079,0.01890578,0.21063026,-0.02052675,-0.23972854,-0.26
 840780,-0.00000373,-0.00015804,-0.00012963,0.02053048,0.23988659,0.268
 53743\\-0.00000046,0.00000337,0.00000028,0.00000073,-0.00000182,0.0000
 0212,-0.00000028,-0.00000155,-0.00000240\\\@


 Experience is what you get when you don't get what you want.
 -- Dan Stanford
 Job cpu time:       0 days  0 hours  0 minutes 20.1 seconds.
 Elapsed time:       0 days  0 hours  0 minutes  2.6 seconds.
 File lengths (MBytes):  RWF=      6 Int=      0 D2E=      0 Chk=      1 Scr=      1
 Normal termination of Gaussian 16 at Thu Mar  6 16:37:53 2025.
