      -----------------------------------------------------------      
     |                   =====================                   |     
     |                           x T B                           |     
     |                   =====================                   |     
     |                         S. Grimme                         |     
     |          Mulliken Center for Theoretical Chemistry        |     
     |                    University of Bonn                     |     
      -----------------------------------------------------------      

   * xtb version 6.6.1 (8d0f1dd) compiled by 'stahn@M-Bot' on 2023-08-01

   xtb is free software: you can redistribute it and/or modify it under
   the terms of the GNU Lesser General Public License as published by
   the Free Software Foundation, either version 3 of the License, or
   (at your option) any later version.
   
   xtb is distributed in the hope that it will be useful,
   but WITHOUT ANY WARRANTY; without even the implied warranty of
   MERCHANTABILITY or FITNESS FOR A PARTICULAR PURPOSE.  See the
   GNU Lesser General Public License for more details.
   
   Cite this work as:
   * C. Bannwarth, E. Caldeweyher, S. Ehlert, A. Hansen, P. Pracht,
     J. Seibert, S. Spicher, S. Grimme, WIREs Comput. Mol. Sci., 2020, 11,
     e01493. DOI: 10.1002/wcms.1493
   
   for GFN2-xTB:
   * C. Bannwarth, S. Ehlert and S. Grimme., J. Chem. Theory Comput., 2019,
     15, 1652-1671. DOI: 10.1021/acs.jctc.8b01176
   for GFN1-xTB:
   * S. Grimme, C. Bannwarth, P. Shushkov, J. Chem. Theory Comput., 2017,
     13, 1989-2009. DOI: 10.1021/acs.jctc.7b00118
   for GFN0-xTB:
   * P. Pracht, E. Caldeweyher, S. Ehlert, S. Grimme, ChemRxiv, 2019, preprint.
     DOI: 10.26434/chemrxiv.8326202.v1
   for GFN-FF:
   * S. Spicher and S. Grimme, Angew. Chem. Int. Ed., 2020, 59, 15665-15673.
     DOI: 10.1002/anie.202004239
   
   for ALPB and GBSA implicit solvation:
   * S. Ehlert, M. Stahn, S. Spicher, S. Grimme, J. Chem. Theory Comput.,
     2021, 17, 4250-4261. DOI: 10.1021/acs.jctc.1c00471
   
   for DFT-D4:
   * E. Caldeweyher, C. Bannwarth and S. Grimme, J. Chem. Phys., 2017,
     147, 034112. DOI: 10.1063/1.4993215
   * E. Caldeweyher, S. Ehlert, A. Hansen, H. Neugebauer, S. Spicher,
     C. Bannwarth and S. Grimme, J. Chem. Phys., 2019, 150, 154122.
     DOI: 10.1063/1.5090222
   * E. Caldeweyher, J.-M. Mewes, S. Ehlert and S. Grimme, Phys. Chem. Chem. Phys.
     2020, 22, 8499-8512. DOI: 10.1039/D0CP00502A
   
   for sTDA-xTB:
   * S. Grimme and C. Bannwarth, J. Chem. Phys., 2016, 145, 054103.
     DOI: 10.1063/1.4959605
   
   in the mass-spec context:
   * V. Asgeirsson, C. Bauer and S. Grimme, Chem. Sci., 2017, 8, 4879.
     DOI: 10.1039/c7sc00601b
   * J. Koopman and S. Grimme, ACS Omega 2019, 4, 12, 15120-15133.
     DOI: 10.1021/acsomega.9b02011
   
   for metadynamics refer to:
   * S. Grimme, J. Chem. Theory Comput., 2019, 155, 2847-2862
     DOI: 10.1021/acs.jctc.9b00143
   
   for SPH calculations refer to:
   * S. Spicher and S. Grimme, J. Chem. Theory Comput., 2021, 17, 1701-1714
     DOI: 10.1021/acs.jctc.0c01306
   
   with help from (in alphabetical order)
   P. Atkinson, C. Bannwarth, F. Bohle, G. Brandenburg, E. Caldeweyher
   M. Checinski, S. Dohm, S. Ehlert, S. Ehrlich, I. Gerasimov, C. Hölzer
   A. Katbashev, J. Koopman, C. Lavigne, S. Lehtola, F. März, M. Müller,
   F. Musil, H. Neugebauer, J. Pisarek, C. Plett, P. Pracht, F. Pultar,
   J. Seibert, P. Shushkov, S. Spicher, M. Stahn, M. Steiner, T. Strunk,
   J. Stückrath, T. Rose, and J. Unsleber
   
 * started run on 2025/04/07 at 09:40:52.475     

           -------------------------------------------------
          |                Calculation Setup                |
           -------------------------------------------------

          program call               : xtb 499.xyz --input 499.inp
          hostname                   : serv11
          coordinate file            : 499.xyz
          omp threads                :                     8

   ID    Z sym.   atoms
    1    8 O      1, 4, 7, 10, 13, 16, 19, 22, 25, 28, 31, 34, 37, 40, 65
    2    1 H      2, 3, 5, 6, 8, 9, 11, 12, 14, 15, 17, 18, 20, 21, 23, 24,
                  26, 27, 29, 30, 33, 36, 39, 42, 49, 50, 55, 58, 59, 63,
                  67-69
    3   17 Cl     32, 35, 38, 41, 60, 61, 70
    4    6 C      43-48, 51-54, 56, 57, 64
    5    7 N      62, 66

molecular fragmentation (1/2 indicates fragments):
1112222222222222222222222222222222222222222222222222222222222222222222
# atoms in fragment 1/2:     3    67
 fragment masses (1/2) :       18.02      687.56
CMA distance (Bohr)    :  11.808
constraining FC (au)   :  0.0500

           -------------------------------------------------
          |                 G F N 2 - x T B                 |
           -------------------------------------------------

        Reference                      10.1021/acs.jctc.8b01176
      * Hamiltonian:
        H0-scaling (s, p, d)           1.850000    2.230000    2.230000
        zeta-weighting                 0.500000
      * Dispersion:
        s8                             2.700000
        a1                             0.520000
        a2                             5.000000
        s9                             5.000000
      * Repulsion:
        kExp                           1.500000    1.000000
        rExp                           1.000000
      * Coulomb:
        alpha                          2.000000
        third order                    shell-resolved
        anisotropic                    true
        a3                             3.000000
        a5                             4.000000
        cn-shift                       1.200000
        cn-exp                         4.000000
        max-rad                        5.000000

q/qsh data taken from xtbrestart
CAMM data taken from xtbrestart

          ...................................................
          :                      SETUP                      :
          :.................................................:
          :  # basis functions                 223          :
          :  # atomic orbitals                 216          :
          :  # shells                          114          :
          :  # electrons                       234          :
          :  max. iterations                   800          :
          :  Hamiltonian                  GFN2-xTB          :
          :  restarted?                       true          :
          :  GBSA solvation                  false          :
          :  PC potential                    false          :
          :  electronic temp.         6000.0000000     K    :
          :  accuracy                    1.0000000          :
          :  -> integral cutoff          0.2500000E+02      :
          :  -> integral neglect         0.1000000E-07      :
          :  -> SCF convergence          0.1000000E-05 Eh   :
          :  -> wf. convergence          0.1000000E-03 e    :
          :  Broyden damping             0.4000000          :
          ...................................................

 iter      E             dE          RMSdq      gap      omega  full diag
   1   -143.7602311 -0.143760E+03  0.439E+00    0.00       0.0  T
   2   -143.7525404  0.769071E-02  0.304E+00    0.11       1.0  T
   3   -142.7513612  0.100118E+01  0.341E+00    0.00       1.0  T
   4   -143.7215786 -0.970217E+00  0.159E+00    0.31       1.0  T
   5   -143.7986945 -0.771159E-01  0.119E+00    0.12       1.0  T
   6   -143.8411332 -0.424387E-01  0.824E-01    0.43       1.0  T
   7   -143.9213793 -0.802462E-01  0.305E-01    0.02       1.0  T
   8   -143.9239275 -0.254814E-02  0.255E-01    0.01       1.0  T
   9   -143.9202749  0.365261E-02  0.263E-01    0.12       1.0  T
  10   -143.9283493 -0.807444E-02  0.889E-02    0.12       1.0  T
  11   -143.9287687 -0.419404E-03  0.539E-02    0.13       1.0  T
  12   -143.9289988 -0.230042E-03  0.291E-02    0.13       1.0  T
  13   -143.9290497 -0.509573E-04  0.165E-02    0.13       1.0  T
  14   -143.9290633 -0.135416E-04  0.105E-02    0.13       1.1  T
  15   -143.9290657 -0.238921E-05  0.851E-03    0.13       1.4  T
  16   -143.9290654  0.296042E-06  0.802E-03    0.13       1.5  T
  17   -143.9290689 -0.353267E-05  0.468E-03    0.13       2.6  T
  18   -143.9290705 -0.162223E-05  0.225E-03    0.13       5.3  T
  19   -143.9290706 -0.107103E-06  0.197E-03    0.13       6.1  T
  20   -143.9290709 -0.310744E-06  0.100E-03    0.13      11.9  T
  21   -143.9290710 -0.266661E-07  0.764E-04    0.13      15.6  T
  22   -143.9290710 -0.229809E-07  0.549E-04    0.13      21.8  T

   *** convergence criteria satisfied after 22 iterations ***

         #    Occupation            Energy/Eh            Energy/eV
      -------------------------------------------------------------
         1        2.0000           -1.0942130             -29.7751
       ...           ...                  ...                  ...
       111        1.8989           -0.4111761             -11.1887
       112        1.8935           -0.4101287             -11.1602
       113        1.7999           -0.3971853             -10.8080
       114        1.7304           -0.3907691             -10.6334
       115        1.7286           -0.3906232             -10.6294
       116        1.7260           -0.3904118             -10.6236
       117        1.7141           -0.3894747             -10.5981 (HOMO)
       118        1.6489           -0.3848343             -10.4719 (LUMO)
       119        0.0730           -0.2932596              -7.9800
       120        0.0714           -0.2928051              -7.9676
       121        0.0551           -0.2877141              -7.8291
       122        0.0343           -0.2785156              -7.5788
       ...           ...                  ...                  ...
       216                          0.6510014              17.7146
      -------------------------------------------------------------
                  HL-Gap            0.0046404 Eh            0.1263 eV
             Fermi-level           -0.3554435 Eh           -9.6721 eV

 SCC (total)                   0 d,  0 h,  0 min,  0.176 sec
 SCC setup                      ...        0 min,  0.000 sec (  0.198%)
 Dispersion                     ...        0 min,  0.001 sec (  0.425%)
 classical contributions        ...        0 min,  0.000 sec (  0.043%)
 integral evaluation            ...        0 min,  0.034 sec ( 19.603%)
 iterations                     ...        0 min,  0.129 sec ( 73.271%)
 molecular gradient             ...        0 min,  0.011 sec (  6.206%)
 printout                       ...        0 min,  0.000 sec (  0.219%)

         :::::::::::::::::::::::::::::::::::::::::::::::::::::
         ::                     SUMMARY                     ::
         :::::::::::::::::::::::::::::::::::::::::::::::::::::
         :: total energy            -142.850058144105 Eh    ::
         :: gradient norm              0.285787303935 Eh/a0 ::
         :: HOMO-LUMO gap              0.126270891330 eV    ::
         ::.................................................::
         :: SCC energy              -143.929070981278 Eh    ::
         :: -> isotropic ES            0.466538627993 Eh    ::
         :: -> anisotropic ES         -0.015187138040 Eh    ::
         :: -> anisotropic XC          0.004334848222 Eh    ::
         :: -> dispersion             -0.052872536559 Eh    ::
         :: repulsion energy           1.077927062439 Eh    ::
         :: add. restraining           0.000000000000 Eh    ::
         :: total charge               0.000000000000 e     ::
         :::::::::::::::::::::::::::::::::::::::::::::::::::::

           -------------------------------------------------
          |                Property Printout                |
           -------------------------------------------------

    * Orbital Energies and Occupations

         #    Occupation            Energy/Eh            Energy/eV
      -------------------------------------------------------------
         1        2.0000           -1.0942130             -29.7751
       ...           ...                  ...                  ...
       105        1.9764           -0.4395444             -11.9606
       106        1.9747           -0.4382048             -11.9242
       107        1.9732           -0.4371007             -11.8941
       108        1.9610           -0.4298999             -11.6982
       109        1.9566           -0.4277872             -11.6407
       110        1.9419           -0.4221173             -11.4864
       111        1.8989           -0.4111761             -11.1887
       112        1.8935           -0.4101287             -11.1602
       113        1.7999           -0.3971853             -10.8080
       114        1.7304           -0.3907691             -10.6334
       115        1.7286           -0.3906232             -10.6294
       116        1.7260           -0.3904118             -10.6236
       117        1.7141           -0.3894747             -10.5981 (HOMO)
       118        1.6489           -0.3848343             -10.4719 (LUMO)
       119        0.0730           -0.2932596              -7.9800
       120        0.0714           -0.2928051              -7.9676
       121        0.0551           -0.2877141              -7.8291
       122        0.0343           -0.2785156              -7.5788
       123        0.0311           -0.2766196              -7.5272
       124        0.0240           -0.2716479              -7.3919
       125        0.0150           -0.2625641              -7.1447
       126        0.0032           -0.2332767              -6.3478
       127        0.0003           -0.1877231              -5.1082
       128        0.0001           -0.1734767              -4.7205
       ...           ...                  ...                  ...
       216                          0.6510014              17.7146
      -------------------------------------------------------------
                  HL-Gap            0.0046404 Eh            0.1263 eV
             Fermi-level           -0.3554435 Eh           -9.6721 eV

     #   Z          covCN         q      C6AA      α(0)
     1   8 O        1.620    -0.589    24.922     6.738
     2   1 H        0.837     0.307     0.696     1.308
     3   1 H        0.807     0.285     0.767     1.376
     4   8 O        1.591    -0.565    24.377     6.663
     5   1 H        0.784     0.278     0.797     1.404
     6   1 H        0.808     0.287     0.762     1.371
     7   8 O        1.615    -0.562    24.294     6.653
     8   1 H        0.809     0.291     0.747     1.357
     9   1 H        0.807     0.292     0.746     1.356
    10   8 O        1.606    -0.572    24.534     6.685
    11   1 H        0.805     0.295     0.737     1.349
    12   1 H        0.801     0.284     0.770     1.379
    13   8 O        1.607    -0.551    24.054     6.619
    14   1 H        0.806     0.288     0.757     1.367
    15   1 H        0.801     0.277     0.796     1.401
    16   8 O        1.614    -0.572    24.515     6.683
    17   1 H        0.806     0.285     0.767     1.375
    18   1 H        0.808     0.291     0.749     1.359
    19   8 O        1.605    -0.571    24.510     6.682
    20   1 H        0.802     0.292     0.748     1.358
    21   1 H        0.802     0.296     0.735     1.347
    22   8 O        1.612    -0.559    24.216     6.642
    23   1 H        0.806     0.289     0.755     1.365
    24   1 H        0.806     0.285     0.769     1.377
    25   8 O        1.601    -0.553    24.091     6.624
    26   1 H        0.797     0.282     0.781     1.389
    27   1 H        0.804     0.275     0.802     1.406
    28   8 O        1.606    -0.525    23.469     6.538
    29   1 H        0.801     0.334     0.627     1.244
    30   1 H        0.805     0.302     0.714     1.327
    31   8 O        1.727    -0.397    20.766     6.153
    32  17 Cl       0.922     0.045    97.833    15.132
    33   1 H        0.808     0.315     0.676     1.291
    34   8 O        1.696    -0.385    20.537     6.118
    35  17 Cl       0.906     0.050    97.694    15.121
    36   1 H        0.790     0.343     0.607     1.225
    37   8 O        0.806    -0.596    26.046     6.841
    38  17 Cl       0.000    -0.185    98.119    15.075
    39   1 H        0.806     0.258     0.863     1.459
    40   8 O        1.738    -0.374    20.318     6.086
    41  17 Cl       0.971     0.067    97.202    15.083
    42   1 H        0.804     0.324     0.652     1.269
    43   6 C        2.907     0.079    26.227     8.397
    44   6 C        3.017    -0.044    29.068     8.844
    45   6 C        2.901    -0.060    29.478     8.902
    46   6 C        2.951     0.076    26.308     8.413
    47   6 C        2.962    -0.031    28.780     8.799
    48   6 C        2.903     0.094    25.912     8.347
    49   1 H        0.924     0.070     2.083     2.257
    50   1 H        0.925     0.093     1.851     2.127
    51   6 C        2.917     0.090    25.989     8.360
    52   6 C        2.914    -0.048    29.199     8.861
    53   6 C        2.927    -0.062    29.530     8.912
    54   6 C        2.960    -0.040    28.981     8.830
    55   1 H        0.927     0.123     1.585     1.969
    56   6 C        2.955    -0.033    28.820     8.805
    57   6 C        2.888     0.076    26.300     8.408
    58   1 H        0.924     0.068     2.107     2.270
    59   1 H        0.923     0.070     2.083     2.257
    60  17 Cl       1.010    -0.096   102.145    15.462
    61  17 Cl       0.999    -0.106   102.479    15.487
    62   7 N        2.722    -0.171    24.700     7.381
    63   1 H        0.861     0.203     1.093     1.637
    64   6 C        2.714     0.321    21.546     7.598
    65   8 O        0.860    -0.425    22.183     6.315
    66   7 N        2.740    -0.159    24.438     7.342
    67   1 H        0.861     0.181     1.207     1.721
    68   1 H        0.926     0.054     2.276     2.359
    69   1 H        0.927     0.108     1.714     2.047
    70  17 Cl       0.983    -0.095   102.128    15.461

 Mol. C6AA /au·bohr⁶  :      63649.569408
 Mol. C8AA /au·bohr⁸  :    1689606.572270
 Mol. α(0) /au        :        382.164499


Wiberg/Mayer (AO) data.
largest (>0.10) Wiberg bond orders for each atom

 ---------------------------------------------------------------------------
     #   Z sym  total        # sym  WBO       # sym  WBO       # sym  WBO
 ---------------------------------------------------------------------------
     1   8 O    1.798 --     3 H    0.908     2 H    0.868
     2   1 H    0.906 --     1 O    0.868
     3   1 H    0.919 --     1 O    0.908
     4   8 O    1.836 --     6 H    0.916     5 H    0.914
     5   1 H    0.923 --     4 O    0.914
     6   1 H    0.918 --     4 O    0.916
     7   8 O    1.829 --     8 H    0.914     9 H    0.914
     8   1 H    0.915 --     7 O    0.914
     9   1 H    0.915 --     7 O    0.914
    10   8 O    1.824 --    11 H    0.907    12 H    0.903
    11   1 H    0.913 --    10 O    0.907
    12   1 H    0.919 --    10 O    0.903
    13   8 O    1.840 --    15 H    0.923    14 H    0.917
    14   1 H    0.917 --    13 O    0.917
    15   1 H    0.923 --    13 O    0.923
    16   8 O    1.831 --    17 H    0.917    18 H    0.914
    17   1 H    0.919 --    16 O    0.917
    18   1 H    0.915 --    16 O    0.914
    19   8 O    1.854 --    20 H    0.908    21 H    0.906
    20   1 H    0.914 --    19 O    0.908
    21   1 H    0.912 --    19 O    0.906
    22   8 O    1.833 --    23 H    0.915    24 H    0.909
    23   1 H    0.916 --    22 O    0.915
    24   1 H    0.919 --    22 O    0.909
    25   8 O    1.833 --    27 H    0.918    26 H    0.914
    26   1 H    0.921 --    25 O    0.914
    27   1 H    0.924 --    25 O    0.918
    28   8 O    1.782 --    30 H    0.897    29 H    0.865
    29   1 H    0.887 --    28 O    0.865
    30   1 H    0.908 --    28 O    0.897
    31   8 O    1.873 --    32 Cl   0.977    33 H    0.897
    32  17 Cl   0.979 --    31 O    0.977
    33   1 H    0.899 --    31 O    0.897
    34   8 O    1.845 --    35 Cl   0.987    36 H    0.843
    35  17 Cl   0.992 --    34 O    0.987
    36   1 H    0.880 --    34 O    0.843
    37   8 O    1.001 --    39 H    0.917
    38  17 Cl   0.000
    39   1 H    0.931 --    37 O    0.917
    40   8 O    1.930 --    41 Cl   1.041    42 H    0.883
    41  17 Cl   1.104 --    40 O    1.041
    42   1 H    0.894 --    40 O    0.883
    43   6 C    3.834 --    44 C    1.427    48 C    1.241    60 Cl   1.005
    44   6 C    3.924 --    43 C    1.427    45 C    1.374    49 H    0.961
    45   6 C    3.924 --    46 C    1.418    44 C    1.374    50 H    0.949
    46   6 C    3.893 --    45 C    1.418    47 C    1.288    62 N    1.022
    47   6 C    3.928 --    48 C    1.474    46 C    1.288    69 H    0.952
    48   6 C    3.873 --    47 C    1.474    43 C    1.241    70 Cl   1.005
    49   1 H    0.993 --    44 C    0.961
    50   1 H    0.989 --    45 C    0.949
    51   6 C    3.891 --    53 C    1.346    52 C    1.241    66 N    1.167
    52   6 C    3.928 --    54 C    1.571    51 C    1.241    55 H    0.934
    53   6 C    3.908 --    56 C    1.404    51 C    1.346    68 H    0.966
    54   6 C    3.943 --    52 C    1.571    57 C    1.259    58 H    0.961
    55   1 H    0.978 --    52 C    0.934
    56   6 C    3.940 --    57 C    1.434    53 C    1.404    59 H    0.961
    57   6 C    3.813 --    56 C    1.434    54 C    1.259    61 Cl   0.983
    58   1 H    0.993 --    54 C    0.961
    59   1 H    0.992 --    56 C    0.961
    60  17 Cl   1.134 --    43 C    1.005
    61  17 Cl   1.099 --    57 C    0.983
    62   7 N    3.411 --    64 C    1.206    46 C    1.022    63 H    0.915
                            65 O    0.141
    63   1 H    0.957 --    62 N    0.915
    64   6 C    3.942 --    65 O    1.601    62 N    1.206    66 N    1.063
    65   8 O    1.941 --    64 C    1.601    62 N    0.141    66 N    0.105
    66   7 N    3.422 --    51 C    1.167    64 C    1.063    67 H    0.926
                            65 O    0.105
    67   1 H    0.965 --    66 N    0.926
    68   1 H    0.995 --    53 C    0.966
    69   1 H    0.987 --    47 C    0.952
    70  17 Cl   1.144 --    48 C    1.005
 ---------------------------------------------------------------------------

Topologies differ in total number of bonds
Writing topology from bond orders to xtbtopo.mol

molecular dipole:
                 x           y           z       tot (Debye)
 q only:        2.108      -6.544      -6.129
   full:        2.827      -6.817      -6.998      25.851
molecular quadrupole (traceless):
                xx          xy          yy          xz          yz          zz
 q only:        6.300      31.476      -8.403      51.382     -39.615       2.103
  q+dip:       -0.290      37.655      -3.637      56.797     -47.846       3.927
   full:        2.164      36.028      -7.544      56.385     -46.700       5.380


           -------------------------------------------------
          | TOTAL ENERGY             -142.850058144105 Eh   |
          | GRADIENT NORM               0.285787303935 Eh/α |
          | HOMO-LUMO GAP               0.126270891330 eV   |
           -------------------------------------------------

------------------------------------------------------------------------
 * finished run on 2025/04/07 at 09:40:52.729     
------------------------------------------------------------------------
 total:
 * wall-time:     0 d,  0 h,  0 min,  0.254 sec
 *  cpu-time:     0 d,  0 h,  0 min,  1.527 sec
 * ratio c/w:     6.019 speedup
 SCF:
 * wall-time:     0 d,  0 h,  0 min,  0.176 sec
 *  cpu-time:     0 d,  0 h,  0 min,  1.382 sec
 * ratio c/w:     7.845 speedup

