      -----------------------------------------------------------      
     |                   =====================                   |     
     |                           x T B                           |     
     |                   =====================                   |     
     |                         S. Grimme                         |     
     |          Mulliken Center for Theoretical Chemistry        |     
     |                    University of Bonn                     |     
      -----------------------------------------------------------      

   * xtb version 6.6.1 (8d0f1dd) compiled by 'stahn@M-Bot' on 2023-08-01

   xtb is free software: you can redistribute it and/or modify it under
   the terms of the GNU Lesser General Public License as published by
   the Free Software Foundation, either version 3 of the License, or
   (at your option) any later version.
   
   xtb is distributed in the hope that it will be useful,
   but WITHOUT ANY WARRANTY; without even the implied warranty of
   MERCHANTABILITY or FITNESS FOR A PARTICULAR PURPOSE.  See the
   GNU Lesser General Public License for more details.
   
   Cite this work as:
   * C. Bannwarth, E. Caldeweyher, S. Ehlert, A. Hansen, P. Pracht,
     J. Seibert, S. Spicher, S. Grimme, WIREs Comput. Mol. Sci., 2020, 11,
     e01493. DOI: 10.1002/wcms.1493
   
   for GFN2-xTB:
   * C. Bannwarth, S. Ehlert and S. Grimme., J. Chem. Theory Comput., 2019,
     15, 1652-1671. DOI: 10.1021/acs.jctc.8b01176
   for GFN1-xTB:
   * S. Grimme, C. Bannwarth, P. Shushkov, J. Chem. Theory Comput., 2017,
     13, 1989-2009. DOI: 10.1021/acs.jctc.7b00118
   for GFN0-xTB:
   * P. Pracht, E. Caldeweyher, S. Ehlert, S. Grimme, ChemRxiv, 2019, preprint.
     DOI: 10.26434/chemrxiv.8326202.v1
   for GFN-FF:
   * S. Spicher and S. Grimme, Angew. Chem. Int. Ed., 2020, 59, 15665-15673.
     DOI: 10.1002/anie.202004239
   
   for ALPB and GBSA implicit solvation:
   * S. Ehlert, M. Stahn, S. Spicher, S. Grimme, J. Chem. Theory Comput.,
     2021, 17, 4250-4261. DOI: 10.1021/acs.jctc.1c00471
   
   for DFT-D4:
   * E. Caldeweyher, C. Bannwarth and S. Grimme, J. Chem. Phys., 2017,
     147, 034112. DOI: 10.1063/1.4993215
   * E. Caldeweyher, S. Ehlert, A. Hansen, H. Neugebauer, S. Spicher,
     C. Bannwarth and S. Grimme, J. Chem. Phys., 2019, 150, 154122.
     DOI: 10.1063/1.5090222
   * E. Caldeweyher, J.-M. Mewes, S. Ehlert and S. Grimme, Phys. Chem. Chem. Phys.
     2020, 22, 8499-8512. DOI: 10.1039/D0CP00502A
   
   for sTDA-xTB:
   * S. Grimme and C. Bannwarth, J. Chem. Phys., 2016, 145, 054103.
     DOI: 10.1063/1.4959605
   
   in the mass-spec context:
   * V. Asgeirsson, C. Bauer and S. Grimme, Chem. Sci., 2017, 8, 4879.
     DOI: 10.1039/c7sc00601b
   * J. Koopman and S. Grimme, ACS Omega 2019, 4, 12, 15120-15133.
     DOI: 10.1021/acsomega.9b02011
   
   for metadynamics refer to:
   * S. Grimme, J. Chem. Theory Comput., 2019, 155, 2847-2862
     DOI: 10.1021/acs.jctc.9b00143
   
   for SPH calculations refer to:
   * S. Spicher and S. Grimme, J. Chem. Theory Comput., 2021, 17, 1701-1714
     DOI: 10.1021/acs.jctc.0c01306
   
   with help from (in alphabetical order)
   P. Atkinson, C. Bannwarth, F. Bohle, G. Brandenburg, E. Caldeweyher
   M. Checinski, S. Dohm, S. Ehlert, S. Ehrlich, I. Gerasimov, C. Hölzer
   A. Katbashev, J. Koopman, C. Lavigne, S. Lehtola, F. März, M. Müller,
   F. Musil, H. Neugebauer, J. Pisarek, C. Plett, P. Pracht, F. Pultar,
   J. Seibert, P. Shushkov, S. Spicher, M. Stahn, M. Steiner, T. Strunk,
   J. Stückrath, T. Rose, and J. Unsleber
   
 * started run on 2025/04/07 at 09:40:49.253     

           -------------------------------------------------
          |                Calculation Setup                |
           -------------------------------------------------

          program call               : xtb 509.xyz --input 509.inp
          hostname                   : serv11
          coordinate file            : 509.xyz
          omp threads                :                     8

   ID    Z sym.   atoms
    1    8 O      1, 4, 7, 10, 13, 16, 19, 22, 25, 28, 31, 34, 37, 40, 65
    2    1 H      2, 3, 5, 6, 8, 9, 11, 12, 14, 15, 17, 18, 20, 21, 23, 24,
                  26, 27, 29, 30, 33, 36, 39, 42, 49, 50, 55, 58, 59, 63,
                  67-69
    3   17 Cl     32, 35, 38, 41, 60, 61, 70
    4    6 C      43-48, 51-54, 56, 57, 64
    5    7 N      62, 66

molecular fragmentation (1/2 indicates fragments):
1112222222222222222222222222222222222222222222222222222222222222222222
# atoms in fragment 1/2:     3    67
 fragment masses (1/2) :       18.02      687.56
CMA distance (Bohr)    :  10.786
constraining FC (au)   :  0.0500

           -------------------------------------------------
          |                 G F N 2 - x T B                 |
           -------------------------------------------------

        Reference                      10.1021/acs.jctc.8b01176
      * Hamiltonian:
        H0-scaling (s, p, d)           1.850000    2.230000    2.230000
        zeta-weighting                 0.500000
      * Dispersion:
        s8                             2.700000
        a1                             0.520000
        a2                             5.000000
        s9                             5.000000
      * Repulsion:
        kExp                           1.500000    1.000000
        rExp                           1.000000
      * Coulomb:
        alpha                          2.000000
        third order                    shell-resolved
        anisotropic                    true
        a3                             3.000000
        a5                             4.000000
        cn-shift                       1.200000
        cn-exp                         4.000000
        max-rad                        5.000000

q/qsh data taken from xtbrestart
CAMM data taken from xtbrestart

          ...................................................
          :                      SETUP                      :
          :.................................................:
          :  # basis functions                 223          :
          :  # atomic orbitals                 216          :
          :  # shells                          114          :
          :  # electrons                       234          :
          :  max. iterations                   800          :
          :  Hamiltonian                  GFN2-xTB          :
          :  restarted?                       true          :
          :  GBSA solvation                  false          :
          :  PC potential                    false          :
          :  electronic temp.         6000.0000000     K    :
          :  accuracy                    1.0000000          :
          :  -> integral cutoff          0.2500000E+02      :
          :  -> integral neglect         0.1000000E-07      :
          :  -> SCF convergence          0.1000000E-05 Eh   :
          :  -> wf. convergence          0.1000000E-03 e    :
          :  Broyden damping             0.4000000          :
          ...................................................

 iter      E             dE          RMSdq      gap      omega  full diag
   1   -143.8290623 -0.143829E+03  0.321E+00    0.06       0.0  T
   2   -143.8009423  0.281200E-01  0.207E+00    0.01       1.0  T
   3   -141.4047126  0.239623E+01  0.448E+00    0.09       1.0  T
   4   -143.7161290 -0.231142E+01  0.119E+00    0.05       1.0  T
   5   -143.8140653 -0.979363E-01  0.798E-01    0.01       1.0  T
   6   -143.8483373 -0.342720E-01  0.446E-01    0.03       1.0  T
   7   -143.8737499 -0.254126E-01  0.162E-01    0.11       1.0  T
   8   -143.8719285  0.182135E-02  0.176E-01    0.13       1.0  T
   9   -143.8742453 -0.231682E-02  0.108E-01    0.13       1.0  T
  10   -143.8751470 -0.901639E-03  0.634E-02    0.13       1.0  T
  11   -143.8752103 -0.633379E-04  0.512E-02    0.13       1.0  T
  12   -143.8753988 -0.188454E-03  0.239E-02    0.12       1.0  T
  13   -143.8754221 -0.233132E-04  0.158E-02    0.12       1.0  T
  14   -143.8754225 -0.376098E-06  0.133E-02    0.12       1.0  T
  15   -143.8754334 -0.109200E-04  0.676E-03    0.12       1.8  T
  16   -143.8754330  0.378276E-06  0.544E-03    0.12       2.2  T
  17   -143.8754349 -0.193211E-05  0.280E-03    0.12       4.3  T
  18   -143.8754353 -0.395841E-06  0.138E-03    0.12       8.7  T
  19   -143.8754354 -0.110945E-06  0.901E-04    0.12      13.3  T
  20   -143.8754355 -0.282299E-07  0.596E-04    0.12      20.1  T

   *** convergence criteria satisfied after 20 iterations ***

         #    Occupation            Energy/Eh            Energy/eV
      -------------------------------------------------------------
         1        2.0000           -1.1024224             -29.9984
       ...           ...                  ...                  ...
       111        1.9237           -0.4176239             -11.3641
       112        1.8820           -0.4089152             -11.1271
       113        1.8179           -0.4000218             -10.8851
       114        1.7380           -0.3922542             -10.6738
       115        1.7378           -0.3922342             -10.6732
       116        1.7314           -0.3917062             -10.6589
       117        1.7184           -0.3906637             -10.6305 (HOMO)
       118        1.6558           -0.3861438             -10.5075 (LUMO)
       119        0.0903           -0.2983188              -8.1177
       120        0.0710           -0.2935435              -7.9877
       121        0.0281           -0.2754941              -7.4966
       122        0.0266           -0.2744829              -7.4691
       ...           ...                  ...                  ...
       216                          0.6710750              18.2609
      -------------------------------------------------------------
                  HL-Gap            0.0045199 Eh            0.1230 eV
             Fermi-level           -0.3562983 Eh           -9.6954 eV

 SCC (total)                   0 d,  0 h,  0 min,  0.166 sec
 SCC setup                      ...        0 min,  0.000 sec (  0.191%)
 Dispersion                     ...        0 min,  0.001 sec (  0.428%)
 classical contributions        ...        0 min,  0.000 sec (  0.048%)
 integral evaluation            ...        0 min,  0.034 sec ( 20.492%)
 iterations                     ...        0 min,  0.119 sec ( 71.529%)
 molecular gradient             ...        0 min,  0.012 sec (  7.022%)
 printout                       ...        0 min,  0.000 sec (  0.250%)

         :::::::::::::::::::::::::::::::::::::::::::::::::::::
         ::                     SUMMARY                     ::
         :::::::::::::::::::::::::::::::::::::::::::::::::::::
         :: total energy            -142.841009290791 Eh    ::
         :: gradient norm              0.280867286384 Eh/a0 ::
         :: HOMO-LUMO gap              0.122991684865 eV    ::
         ::.................................................::
         :: SCC energy              -143.875435472046 Eh    ::
         :: -> isotropic ES            0.470560923147 Eh    ::
         :: -> anisotropic ES         -0.025793974756 Eh    ::
         :: -> anisotropic XC         -0.013613767635 Eh    ::
         :: -> dispersion             -0.056662844520 Eh    ::
         :: repulsion energy           1.033022427409 Eh    ::
         :: add. restraining           0.000000000000 Eh    ::
         :: total charge               0.000000000002 e     ::
         :::::::::::::::::::::::::::::::::::::::::::::::::::::

           -------------------------------------------------
          |                Property Printout                |
           -------------------------------------------------

    * Orbital Energies and Occupations

         #    Occupation            Energy/Eh            Energy/eV
      -------------------------------------------------------------
         1        2.0000           -1.1024224             -29.9984
       ...           ...                  ...                  ...
       105        1.9744           -0.4388601             -11.9420
       106        1.9688           -0.4350691             -11.8388
       107        1.9667           -0.4338108             -11.8046
       108        1.9612           -0.4308600             -11.7243
       109        1.9600           -0.4302378             -11.7074
       110        1.9299           -0.4192944             -11.4096
       111        1.9237           -0.4176239             -11.3641
       112        1.8820           -0.4089152             -11.1271
       113        1.8179           -0.4000218             -10.8851
       114        1.7380           -0.3922542             -10.6738
       115        1.7378           -0.3922342             -10.6732
       116        1.7314           -0.3917062             -10.6589
       117        1.7184           -0.3906637             -10.6305 (HOMO)
       118        1.6558           -0.3861438             -10.5075 (LUMO)
       119        0.0903           -0.2983188              -8.1177
       120        0.0710           -0.2935435              -7.9877
       121        0.0281           -0.2754941              -7.4966
       122        0.0266           -0.2744829              -7.4691
       123        0.0211           -0.2699803              -7.3465
       124        0.0167           -0.2655178              -7.2251
       125        0.0164           -0.2651679              -7.2156
       126        0.0037           -0.2366421              -6.4394
       127        0.0009           -0.2107015              -5.7335
       128        0.0001           -0.1710907              -4.6556
       ...           ...                  ...                  ...
       216                          0.6710750              18.2609
      -------------------------------------------------------------
                  HL-Gap            0.0045199 Eh            0.1230 eV
             Fermi-level           -0.3562983 Eh           -9.6954 eV

     #   Z          covCN         q      C6AA      α(0)
     1   8 O        1.601    -0.581    24.754     6.715
     2   1 H        0.803     0.295     0.737     1.348
     3   1 H        0.798     0.295     0.738     1.350
     4   8 O        1.576    -0.573    24.566     6.688
     5   1 H        0.775     0.291     0.756     1.369
     6   1 H        0.802     0.299     0.726     1.338
     7   8 O        1.616    -0.602    25.231     6.780
     8   1 H        0.808     0.314     0.680     1.295
     9   1 H        0.808     0.310     0.692     1.307
    10   8 O        1.596    -0.546    23.931     6.602
    11   1 H        0.800     0.280     0.786     1.393
    12   1 H        0.796     0.276     0.801     1.407
    13   8 O        1.609    -0.560    24.244     6.645
    14   1 H        0.806     0.291     0.747     1.357
    15   1 H        0.803     0.274     0.805     1.409
    16   8 O        1.599    -0.580    24.720     6.710
    17   1 H        0.805     0.290     0.751     1.361
    18   1 H        0.794     0.293     0.745     1.357
    19   8 O        1.611    -0.584    24.813     6.723
    20   1 H        0.805     0.301     0.719     1.332
    21   1 H        0.806     0.289     0.756     1.366
    22   8 O        1.610    -0.562    24.298     6.653
    23   1 H        0.805     0.289     0.754     1.364
    24   1 H        0.805     0.289     0.755     1.365
    25   8 O        1.611    -0.562    24.304     6.654
    26   1 H        0.805     0.283     0.775     1.383
    27   1 H        0.805     0.287     0.762     1.371
    28   8 O        1.607    -0.565    24.369     6.663
    29   1 H        0.807     0.334     0.626     1.242
    30   1 H        0.800     0.309     0.695     1.310
    31   8 O        1.722    -0.403    20.887     6.171
    32  17 Cl       0.923     0.025    98.426    15.178
    33   1 H        0.801     0.315     0.680     1.295
    34   8 O        1.707    -0.385    20.541     6.119
    35  17 Cl       0.923     0.102    96.186    15.004
    36   1 H        0.784     0.380     0.525     1.140
    37   8 O        0.793    -0.579    25.650     6.789
    38  17 Cl       0.000    -0.207    98.794    15.127
    39   1 H        0.793     0.255     0.876     1.471
    40   8 O        1.744    -0.382    20.480     6.111
    41  17 Cl       0.974     0.060    97.406    15.099
    42   1 H        0.843     0.324     0.649     1.262
    43   6 C        2.970     0.071    26.416     8.431
    44   6 C        2.944    -0.034    28.849     8.809
    45   6 C        2.939    -0.040    29.002     8.832
    46   6 C        2.920     0.095    25.898     8.345
    47   6 C        2.965    -0.075    29.866     8.964
    48   6 C        2.897     0.096    25.866     8.339
    49   1 H        0.927     0.086     1.920     2.167
    50   1 H        0.926     0.081     1.973     2.196
    51   6 C        2.894     0.088    26.049     8.368
    52   6 C        2.927    -0.044    29.092     8.845
    53   6 C        2.933    -0.041    29.028     8.836
    54   6 C        2.956    -0.029    28.731     8.792
    55   1 H        0.927     0.075     2.033     2.229
    56   6 C        2.922    -0.031    28.765     8.795
    57   6 C        2.876     0.095    25.895     8.342
    58   1 H        0.926     0.068     2.106     2.270
    59   1 H        0.927     0.082     1.961     2.190
    60  17 Cl       0.982    -0.140   103.521    15.566
    61  17 Cl       0.927    -0.115   102.726    15.506
    62   7 N        2.686    -0.176    24.810     7.398
    63   1 H        0.860     0.224     0.993     1.561
    64   6 C        2.699     0.338    21.262     7.547
    65   8 O        0.858    -0.362    20.930     6.134
    66   7 N        2.687    -0.204    25.426     7.489
    67   1 H        0.861     0.172     1.259     1.758
    68   1 H        0.922     0.049     2.339     2.392
    69   1 H        0.924     0.115     1.656     2.012
    70  17 Cl       1.069    -0.118   102.854    15.516

 Mol. C6AA /au·bohr⁶  :      63690.251802
 Mol. C8AA /au·bohr⁸  :    1691099.009838
 Mol. α(0) /au        :        382.250943


Wiberg/Mayer (AO) data.
largest (>0.10) Wiberg bond orders for each atom

 ---------------------------------------------------------------------------
     #   Z sym  total        # sym  WBO       # sym  WBO       # sym  WBO
 ---------------------------------------------------------------------------
     1   8 O    1.814 --     3 H    0.904     2 H    0.892
     2   1 H    0.913 --     1 O    0.892
     3   1 H    0.913 --     1 O    0.904
     4   8 O    1.858 --     6 H    0.902     5 H    0.898
     5   1 H    0.915 --     4 O    0.898
     6   1 H    0.911 --     4 O    0.902
     7   8 O    1.805 --     8 H    0.894     9 H    0.888
     8   1 H    0.901 --     7 O    0.894
     9   1 H    0.904 --     7 O    0.888
    10   8 O    1.829 --    12 H    0.915    11 H    0.910
    11   1 H    0.922 --    10 O    0.910
    12   1 H    0.924 --    10 O    0.915
    13   8 O    1.840 --    15 H    0.922    14 H    0.913
    14   1 H    0.915 --    13 O    0.913
    15   1 H    0.925 --    13 O    0.922
    16   8 O    1.833 --    18 H    0.913    17 H    0.912
    17   1 H    0.916 --    16 O    0.912
    18   1 H    0.914 --    16 O    0.913
    19   8 O    1.834 --    21 H    0.916    20 H    0.901
    20   1 H    0.910 --    19 O    0.901
    21   1 H    0.917 --    19 O    0.916
    22   8 O    1.832 --    24 H    0.916    23 H    0.914
    23   1 H    0.916 --    22 O    0.914
    24   1 H    0.916 --    22 O    0.916
    25   8 O    1.838 --    26 H    0.920    27 H    0.918
    26   1 H    0.920 --    25 O    0.920
    27   1 H    0.918 --    25 O    0.918
    28   8 O    1.778 --    30 H    0.894    29 H    0.842
    29   1 H    0.887 --    28 O    0.842
    30   1 H    0.904 --    28 O    0.894
    31   8 O    1.861 --    32 Cl   0.965    33 H    0.896
    32  17 Cl   0.969 --    31 O    0.965
    33   1 H    0.899 --    31 O    0.896
    34   8 O    1.830 --    35 Cl   1.022    36 H    0.733
    35  17 Cl   1.050 --    34 O    1.022
    36   1 H    0.851 --    34 O    0.733
    37   8 O    1.063 --    39 H    0.931
    38  17 Cl   0.000
    39   1 H    0.933 --    37 O    0.931
    40   8 O    1.941 --    41 Cl   1.044    42 H    0.890
    41  17 Cl   1.082 --    40 O    1.044
    42   1 H    0.895 --    40 O    0.890
    43   6 C    3.837 --    44 C    1.421    48 C    1.325    60 Cl   0.938
    44   6 C    3.924 --    43 C    1.421    45 C    1.365    49 H    0.963
                            47 C    0.104
    45   6 C    3.941 --    46 C    1.452    44 C    1.365    50 H    0.953
    46   6 C    3.911 --    45 C    1.452    47 C    1.278    62 N    1.026
    47   6 C    3.909 --    48 C    1.456    46 C    1.278    69 H    0.922
                            44 C    0.104
    48   6 C    3.892 --    47 C    1.456    43 C    1.325    70 Cl   0.980
    49   1 H    0.991 --    44 C    0.963
    50   1 H    0.990 --    45 C    0.953
    51   6 C    3.908 --    53 C    1.367    52 C    1.296    66 N    1.116
    52   6 C    3.924 --    54 C    1.485    51 C    1.296    55 H    0.961
    53   6 C    3.907 --    56 C    1.393    51 C    1.367    68 H    0.963
    54   6 C    3.945 --    52 C    1.485    57 C    1.354    58 H    0.961
    55   1 H    0.991 --    52 C    0.961
    56   6 C    3.932 --    57 C    1.409    53 C    1.393    59 H    0.965
    57   6 C    3.853 --    56 C    1.409    54 C    1.354    61 Cl   0.971
    58   1 H    0.991 --    54 C    0.961
    59   1 H    0.991 --    56 C    0.965
    60  17 Cl   1.045 --    43 C    0.938
    61  17 Cl   1.084 --    57 C    0.971
    62   7 N    3.387 --    64 C    1.169    46 C    1.026    63 H    0.908
                            65 O    0.161
    63   1 H    0.948 --    62 N    0.908
    64   6 C    3.939 --    65 O    1.738    62 N    1.169    66 N    0.975
    65   8 O    2.068 --    64 C    1.738    62 N    0.161    66 N    0.109
    66   7 N    3.304 --    51 C    1.116    64 C    0.975    67 H    0.942
                            65 O    0.109
    67   1 H    0.968 --    66 N    0.942
    68   1 H    0.994 --    53 C    0.963
    69   1 H    0.983 --    47 C    0.922
    70  17 Cl   1.111 --    48 C    0.980
 ---------------------------------------------------------------------------

Topologies differ in total number of bonds
Writing topology from bond orders to xtbtopo.mol

molecular dipole:
                 x           y           z       tot (Debye)
 q only:        1.989      -5.260      -3.726
   full:        3.279      -5.233      -4.391      19.261
molecular quadrupole (traceless):
                xx          xy          yy          xz          yz          zz
 q only:       37.225      23.383      -9.260      50.673     -27.278     -27.965
  q+dip:       47.383      35.189     -33.802      50.996     -37.685     -13.580
   full:       46.966      33.896     -35.345      51.014     -36.535     -11.621


           -------------------------------------------------
          | TOTAL ENERGY             -142.841009290791 Eh   |
          | GRADIENT NORM               0.280867286384 Eh/α |
          | HOMO-LUMO GAP               0.122991684865 eV   |
           -------------------------------------------------

------------------------------------------------------------------------
 * finished run on 2025/04/07 at 09:40:49.525     
------------------------------------------------------------------------
 total:
 * wall-time:     0 d,  0 h,  0 min,  0.270 sec
 *  cpu-time:     0 d,  0 h,  0 min,  1.471 sec
 * ratio c/w:     5.439 speedup
 SCF:
 * wall-time:     0 d,  0 h,  0 min,  0.166 sec
 *  cpu-time:     0 d,  0 h,  0 min,  1.305 sec
 * ratio c/w:     7.837 speedup

