      -----------------------------------------------------------      
     |                   =====================                   |     
     |                           x T B                           |     
     |                   =====================                   |     
     |                         S. Grimme                         |     
     |          Mulliken Center for Theoretical Chemistry        |     
     |                    University of Bonn                     |     
      -----------------------------------------------------------      

   * xtb version 6.6.1 (8d0f1dd) compiled by 'stahn@M-Bot' on 2023-08-01

   xtb is free software: you can redistribute it and/or modify it under
   the terms of the GNU Lesser General Public License as published by
   the Free Software Foundation, either version 3 of the License, or
   (at your option) any later version.
   
   xtb is distributed in the hope that it will be useful,
   but WITHOUT ANY WARRANTY; without even the implied warranty of
   MERCHANTABILITY or FITNESS FOR A PARTICULAR PURPOSE.  See the
   GNU Lesser General Public License for more details.
   
   Cite this work as:
   * C. Bannwarth, E. Caldeweyher, S. Ehlert, A. Hansen, P. Pracht,
     J. Seibert, S. Spicher, S. Grimme, WIREs Comput. Mol. Sci., 2020, 11,
     e01493. DOI: 10.1002/wcms.1493
   
   for GFN2-xTB:
   * C. Bannwarth, S. Ehlert and S. Grimme., J. Chem. Theory Comput., 2019,
     15, 1652-1671. DOI: 10.1021/acs.jctc.8b01176
   for GFN1-xTB:
   * S. Grimme, C. Bannwarth, P. Shushkov, J. Chem. Theory Comput., 2017,
     13, 1989-2009. DOI: 10.1021/acs.jctc.7b00118
   for GFN0-xTB:
   * P. Pracht, E. Caldeweyher, S. Ehlert, S. Grimme, ChemRxiv, 2019, preprint.
     DOI: 10.26434/chemrxiv.8326202.v1
   for GFN-FF:
   * S. Spicher and S. Grimme, Angew. Chem. Int. Ed., 2020, 59, 15665-15673.
     DOI: 10.1002/anie.202004239
   
   for ALPB and GBSA implicit solvation:
   * S. Ehlert, M. Stahn, S. Spicher, S. Grimme, J. Chem. Theory Comput.,
     2021, 17, 4250-4261. DOI: 10.1021/acs.jctc.1c00471
   
   for DFT-D4:
   * E. Caldeweyher, C. Bannwarth and S. Grimme, J. Chem. Phys., 2017,
     147, 034112. DOI: 10.1063/1.4993215
   * E. Caldeweyher, S. Ehlert, A. Hansen, H. Neugebauer, S. Spicher,
     C. Bannwarth and S. Grimme, J. Chem. Phys., 2019, 150, 154122.
     DOI: 10.1063/1.5090222
   * E. Caldeweyher, J.-M. Mewes, S. Ehlert and S. Grimme, Phys. Chem. Chem. Phys.
     2020, 22, 8499-8512. DOI: 10.1039/D0CP00502A
   
   for sTDA-xTB:
   * S. Grimme and C. Bannwarth, J. Chem. Phys., 2016, 145, 054103.
     DOI: 10.1063/1.4959605
   
   in the mass-spec context:
   * V. Asgeirsson, C. Bauer and S. Grimme, Chem. Sci., 2017, 8, 4879.
     DOI: 10.1039/c7sc00601b
   * J. Koopman and S. Grimme, ACS Omega 2019, 4, 12, 15120-15133.
     DOI: 10.1021/acsomega.9b02011
   
   for metadynamics refer to:
   * S. Grimme, J. Chem. Theory Comput., 2019, 155, 2847-2862
     DOI: 10.1021/acs.jctc.9b00143
   
   for SPH calculations refer to:
   * S. Spicher and S. Grimme, J. Chem. Theory Comput., 2021, 17, 1701-1714
     DOI: 10.1021/acs.jctc.0c01306
   
   with help from (in alphabetical order)
   P. Atkinson, C. Bannwarth, F. Bohle, G. Brandenburg, E. Caldeweyher
   M. Checinski, S. Dohm, S. Ehlert, S. Ehrlich, I. Gerasimov, C. Hölzer
   A. Katbashev, J. Koopman, C. Lavigne, S. Lehtola, F. März, M. Müller,
   F. Musil, H. Neugebauer, J. Pisarek, C. Plett, P. Pracht, F. Pultar,
   J. Seibert, P. Shushkov, S. Spicher, M. Stahn, M. Steiner, T. Strunk,
   J. Stückrath, T. Rose, and J. Unsleber
   
 * started run on 2025/04/07 at 09:40:49.541     

           -------------------------------------------------
          |                Calculation Setup                |
           -------------------------------------------------

          program call               : xtb 519.xyz --input 519.inp
          hostname                   : serv11
          coordinate file            : 519.xyz
          omp threads                :                     8

   ID    Z sym.   atoms
    1    8 O      1, 4, 7, 10, 13, 16, 19, 22, 25, 28, 31, 34, 37, 40, 65
    2    1 H      2, 3, 5, 6, 8, 9, 11, 12, 14, 15, 17, 18, 20, 21, 23, 24,
                  26, 27, 29, 30, 33, 36, 39, 42, 49, 50, 55, 58, 59, 63,
                  67-69
    3   17 Cl     32, 35, 38, 41, 60, 61, 70
    4    6 C      43-48, 51-54, 56, 57, 64
    5    7 N      62, 66

molecular fragmentation (1/2 indicates fragments):
1112222222222222222222222222222222222222222222222222222222222222222222
# atoms in fragment 1/2:     3    67
 fragment masses (1/2) :       18.02      687.56
CMA distance (Bohr)    :  10.234
constraining FC (au)   :  0.0500

           -------------------------------------------------
          |                 G F N 2 - x T B                 |
           -------------------------------------------------

        Reference                      10.1021/acs.jctc.8b01176
      * Hamiltonian:
        H0-scaling (s, p, d)           1.850000    2.230000    2.230000
        zeta-weighting                 0.500000
      * Dispersion:
        s8                             2.700000
        a1                             0.520000
        a2                             5.000000
        s9                             5.000000
      * Repulsion:
        kExp                           1.500000    1.000000
        rExp                           1.000000
      * Coulomb:
        alpha                          2.000000
        third order                    shell-resolved
        anisotropic                    true
        a3                             3.000000
        a5                             4.000000
        cn-shift                       1.200000
        cn-exp                         4.000000
        max-rad                        5.000000

q/qsh data taken from xtbrestart
CAMM data taken from xtbrestart

          ...................................................
          :                      SETUP                      :
          :.................................................:
          :  # basis functions                 223          :
          :  # atomic orbitals                 216          :
          :  # shells                          114          :
          :  # electrons                       234          :
          :  max. iterations                   800          :
          :  Hamiltonian                  GFN2-xTB          :
          :  restarted?                       true          :
          :  GBSA solvation                  false          :
          :  PC potential                    false          :
          :  electronic temp.         6000.0000000     K    :
          :  accuracy                    1.0000000          :
          :  -> integral cutoff          0.2500000E+02      :
          :  -> integral neglect         0.1000000E-07      :
          :  -> SCF convergence          0.1000000E-05 Eh   :
          :  -> wf. convergence          0.1000000E-03 e    :
          :  Broyden damping             0.4000000          :
          ...................................................

 iter      E             dE          RMSdq      gap      omega  full diag
   1   -143.8574528 -0.143857E+03  0.298E+00    0.45       0.0  T
   2   -143.8317017  0.257511E-01  0.195E+00    0.00       1.0  T
   3   -143.1788237  0.652878E+00  0.255E+00    0.28       1.0  T
   4   -143.7283631 -0.549539E+00  0.128E+00    0.12       1.0  T
   5   -143.8781537 -0.149791E+00  0.462E-01    0.41       1.0  T
   6   -143.8899690 -0.118152E-01  0.213E-01    0.23       1.0  T
   7   -143.8896099  0.359097E-03  0.206E-01    0.21       1.0  T
   8   -143.8917663 -0.215648E-02  0.126E-01    0.31       1.0  T
   9   -143.8924722 -0.705839E-03  0.760E-02    0.26       1.0  T
  10   -143.8927518 -0.279593E-03  0.440E-02    0.27       1.0  T
  11   -143.8926083  0.143427E-03  0.555E-02    0.24       1.0  T
  12   -143.8928503 -0.241919E-03  0.202E-02    0.27       1.0  T
  13   -143.8928619 -0.115959E-04  0.163E-02    0.27       1.0  T
  14   -143.8928706 -0.875007E-05  0.121E-02    0.26       1.0  T
  15   -143.8928787 -0.812143E-05  0.695E-03    0.26       1.7  T
  16   -143.8928814 -0.266381E-05  0.351E-03    0.26       3.4  T
  17   -143.8928816 -0.198855E-06  0.268E-03    0.26       4.5  T
  18   -143.8928821 -0.463246E-06  0.129E-03    0.26       9.3  T
  19   -143.8928821 -0.499858E-07  0.857E-04    0.26      13.9  T
  20   -143.8928821 -0.143185E-07  0.583E-04    0.26      20.5  T

   *** convergence criteria satisfied after 20 iterations ***

         #    Occupation            Energy/Eh            Energy/eV
      -------------------------------------------------------------
         1        2.0000           -1.0879615             -29.6049
       ...           ...                  ...                  ...
       111        1.9154           -0.4112666             -11.1911
       112        1.8840           -0.4049480             -11.0192
       113        1.8753           -0.4034861             -10.9794
       114        1.7720           -0.3909435             -10.6381
       115        1.7479           -0.3887687             -10.5789
       116        1.7461           -0.3886143             -10.5747
       117        1.7457           -0.3885856             -10.5740 (HOMO)
       118        1.6105           -0.3789518             -10.3118 (LUMO)
       119        0.0597           -0.2858233              -7.7776
       120        0.0364           -0.2762056              -7.5159
       121        0.0265           -0.2700782              -7.3492
       122        0.0256           -0.2694507              -7.3321
       ...           ...                  ...                  ...
       216                          0.6651699              18.1002
      -------------------------------------------------------------
                  HL-Gap            0.0096338 Eh            0.2622 eV
             Fermi-level           -0.3519808 Eh           -9.5779 eV

 SCC (total)                   0 d,  0 h,  0 min,  0.165 sec
 SCC setup                      ...        0 min,  0.000 sec (  0.206%)
 Dispersion                     ...        0 min,  0.001 sec (  0.440%)
 classical contributions        ...        0 min,  0.000 sec (  0.050%)
 integral evaluation            ...        0 min,  0.034 sec ( 20.685%)
 iterations                     ...        0 min,  0.118 sec ( 71.414%)
 molecular gradient             ...        0 min,  0.011 sec (  6.921%)
 printout                       ...        0 min,  0.000 sec (  0.243%)

         :::::::::::::::::::::::::::::::::::::::::::::::::::::
         ::                     SUMMARY                     ::
         :::::::::::::::::::::::::::::::::::::::::::::::::::::
         :: total energy            -142.871896873745 Eh    ::
         :: gradient norm              0.264323921783 Eh/a0 ::
         :: HOMO-LUMO gap              0.262150352563 eV    ::
         ::.................................................::
         :: SCC energy              -143.892882120631 Eh    ::
         :: -> isotropic ES            0.458005960035 Eh    ::
         :: -> anisotropic ES         -0.029525443531 Eh    ::
         :: -> anisotropic XC          0.003151252048 Eh    ::
         :: -> dispersion             -0.061304081766 Eh    ::
         :: repulsion energy           1.019052783591 Eh    ::
         :: add. restraining           0.000000000000 Eh    ::
         :: total charge               0.000000000006 e     ::
         :::::::::::::::::::::::::::::::::::::::::::::::::::::

           -------------------------------------------------
          |                Property Printout                |
           -------------------------------------------------

    * Orbital Energies and Occupations

         #    Occupation            Energy/Eh            Energy/eV
      -------------------------------------------------------------
         1        2.0000           -1.0879615             -29.6049
       ...           ...                  ...                  ...
       105        1.9741           -0.4342901             -11.8176
       106        1.9714           -0.4324023             -11.7663
       107        1.9654           -0.4287566             -11.6671
       108        1.9646           -0.4283214             -11.6552
       109        1.9601           -0.4259828             -11.5916
       110        1.9238           -0.4133195             -11.2470
       111        1.9154           -0.4112666             -11.1911
       112        1.8840           -0.4049480             -11.0192
       113        1.8753           -0.4034861             -10.9794
       114        1.7720           -0.3909435             -10.6381
       115        1.7479           -0.3887687             -10.5789
       116        1.7461           -0.3886143             -10.5747
       117        1.7457           -0.3885856             -10.5740 (HOMO)
       118        1.6105           -0.3789518             -10.3118 (LUMO)
       119        0.0597           -0.2858233              -7.7776
       120        0.0364           -0.2762056              -7.5159
       121        0.0265           -0.2700782              -7.3492
       122        0.0256           -0.2694507              -7.3321
       123        0.0206           -0.2652787              -7.2186
       124        0.0182           -0.2628657              -7.1529
       125        0.0046           -0.2366013              -6.4383
       126        0.0033           -0.2303390              -6.2678
       127        0.0007           -0.2012671              -5.4768
       128        0.0001           -0.1699468              -4.6245
       ...           ...                  ...                  ...
       216                          0.6651699              18.1002
      -------------------------------------------------------------
                  HL-Gap            0.0096338 Eh            0.2622 eV
             Fermi-level           -0.3519808 Eh           -9.5779 eV

     #   Z          covCN         q      C6AA      α(0)
     1   8 O        1.601    -0.561    24.287     6.651
     2   1 H        0.798     0.269     0.824     1.426
     3   1 H        0.804     0.303     0.711     1.325
     4   8 O        1.615    -0.575    24.591     6.693
     5   1 H        0.809     0.302     0.713     1.326
     6   1 H        0.806     0.304     0.708     1.322
     7   8 O        1.602    -0.554    24.120     6.628
     8   1 H        0.802     0.298     0.728     1.340
     9   1 H        0.800     0.281     0.782     1.389
    10   8 O        1.584    -0.479    22.485     6.399
    11   1 H        0.795     0.311     0.690     1.306
    12   1 H        0.786     0.318     0.671     1.289
    13   8 O        1.606    -0.575    24.590     6.693
    14   1 H        0.799     0.286     0.765     1.374
    15   1 H        0.807     0.317     0.673     1.288
    16   8 O        1.612    -0.587    24.884     6.733
    17   1 H        0.805     0.319     0.666     1.281
    18   1 H        0.807     0.285     0.769     1.377
    19   8 O        1.607    -0.569    24.469     6.676
    20   1 H        0.804     0.290     0.753     1.363
    21   1 H        0.803     0.282     0.779     1.386
    22   8 O        1.611    -0.562    24.302     6.654
    23   1 H        0.806     0.284     0.772     1.380
    24   1 H        0.806     0.289     0.756     1.366
    25   8 O        1.601    -0.560    24.247     6.646
    26   1 H        0.806     0.285     0.766     1.375
    27   1 H        0.795     0.279     0.789     1.396
    28   8 O        1.602    -0.579    24.689     6.706
    29   1 H        0.794     0.282     0.779     1.387
    30   1 H        0.830     0.327     0.641     1.256
    31   8 O        1.737    -0.380    20.447     6.106
    32  17 Cl       0.965     0.057    97.520    15.108
    33   1 H        0.838     0.337     0.616     1.231
    34   8 O        1.675    -0.431    21.459     6.254
    35  17 Cl       0.961     0.086    96.653    15.041
    36   1 H        0.925     0.377     0.520     1.128
    37   8 O        0.990    -0.587    25.725     6.804
    38  17 Cl       0.000    -0.239    99.777    15.202
    39   1 H        0.805     0.263     0.844     1.443
    40   8 O        1.766    -0.436    21.528     6.265
    41  17 Cl       0.939     0.041    97.984    15.144
    42   1 H        1.210     0.344     0.588     1.197
    43   6 C        2.891     0.082    26.172     8.388
    44   6 C        2.940    -0.051    29.273     8.874
    45   6 C        2.909    -0.062    29.539     8.912
    46   6 C        2.895     0.085    26.097     8.376
    47   6 C        2.977    -0.072    29.779     8.951
    48   6 C        2.974     0.073    26.369     8.423
    49   1 H        0.926     0.081     1.965     2.192
    50   1 H        0.924     0.133     1.512     1.923
    51   6 C        2.904     0.085    26.106     8.378
    52   6 C        2.938    -0.028    28.698     8.786
    53   6 C        2.962    -0.041    29.026     8.837
    54   6 C        2.973    -0.044    29.099     8.848
    55   1 H        0.924     0.060     2.194     2.316
    56   6 C        2.976    -0.037    28.909     8.820
    57   6 C        2.903     0.101    25.763     8.322
    58   1 H        0.926     0.061     2.188     2.313
    59   1 H        0.926     0.074     2.046     2.237
    60  17 Cl       1.062    -0.107   102.521    15.491
    61  17 Cl       0.985    -0.109   102.563    15.494
    62   7 N        2.690    -0.177    24.827     7.400
    63   1 H        0.859     0.248     0.889     1.477
    64   6 C        2.677     0.328    21.428     7.575
    65   8 O        0.866    -0.414    21.950     6.282
    66   7 N        2.718    -0.227    25.966     7.568
    67   1 H        0.861     0.175     1.245     1.748
    68   1 H        0.927     0.058     2.217     2.328
    69   1 H        0.925     0.108     1.715     2.048
    70  17 Cl       1.526    -0.123   103.019    15.528

 Mol. C6AA /au·bohr⁶  :      63672.983091
 Mol. C8AA /au·bohr⁸  :    1691799.586081
 Mol. α(0) /au        :        382.188350


Wiberg/Mayer (AO) data.
largest (>0.10) Wiberg bond orders for each atom

 ---------------------------------------------------------------------------
     #   Z sym  total        # sym  WBO       # sym  WBO       # sym  WBO
 ---------------------------------------------------------------------------
     1   8 O    1.832 --     2 H    0.924     3 H    0.899
     2   1 H    0.927 --     1 O    0.924
     3   1 H    0.908 --     1 O    0.899
     4   8 O    1.877 --     5 H    0.905     6 H    0.901
     5   1 H    0.909 --     4 O    0.905
     6   1 H    0.907 --     4 O    0.901
     7   8 O    1.847 --     9 H    0.919     8 H    0.910
     8   1 H    0.911 --     7 O    0.910
     9   1 H    0.921 --     7 O    0.919
    10   8 O    1.828 --    11 H    0.894    12 H    0.893
    11   1 H    0.902 --    10 O    0.894
    12   1 H    0.898 --    10 O    0.893
    13   8 O    1.840 --    14 H    0.915    15 H    0.894
    14   1 H    0.918 --    13 O    0.915
    15   1 H    0.900 --    13 O    0.894
    16   8 O    1.821 --    18 H    0.906    17 H    0.875
    17   1 H    0.898 --    16 O    0.875
    18   1 H    0.919 --    16 O    0.906
    19   8 O    1.835 --    21 H    0.916    20 H    0.915
    20   1 H    0.916 --    19 O    0.915
    21   1 H    0.921 --    19 O    0.916
    22   8 O    1.836 --    23 H    0.919    24 H    0.917
    23   1 H    0.919 --    22 O    0.919
    24   1 H    0.917 --    22 O    0.917
    25   8 O    1.840 --    27 H    0.922    26 H    0.918
    26   1 H    0.918 --    25 O    0.918
    27   1 H    0.922 --    25 O    0.922
    28   8 O    1.791 --    29 H    0.916    30 H    0.852
    29   1 H    0.920 --    28 O    0.916
    30   1 H    0.892 --    28 O    0.852
    31   8 O    1.916 --    32 Cl   1.032    33 H    0.884
    32  17 Cl   1.037 --    31 O    1.032
    33   1 H    0.886 --    31 O    0.884
    34   8 O    1.688 --    35 Cl   1.059    36 H    0.559
    35  17 Cl   1.124 --    34 O    1.059
    36   1 H    0.855 --    34 O    0.559    37 O    0.289
    37   8 O    1.307 --    39 H    0.910    36 H    0.289
    38  17 Cl   0.000
    39   1 H    0.917 --    37 O    0.910
    40   8 O    1.858 --    41 Cl   1.034    42 H    0.776
    41  17 Cl   1.058 --    40 O    1.034
    42   1 H    0.881 --    40 O    0.776
    43   6 C    3.856 --    44 C    1.369    48 C    1.328    60 Cl   1.004
    44   6 C    3.929 --    45 C    1.415    43 C    1.369    49 H    0.963
    45   6 C    3.917 --    44 C    1.415    46 C    1.372    50 H    0.932
    46   6 C    3.905 --    45 C    1.372    47 C    1.284    62 N    1.078
    47   6 C    3.915 --    48 C    1.470    46 C    1.284    69 H    0.945
    48   6 C    3.870 --    47 C    1.470    43 C    1.328    70 Cl   0.919
    49   1 H    0.991 --    44 C    0.963
    50   1 H    0.977 --    45 C    0.932
    51   6 C    3.920 --    53 C    1.406    52 C    1.342    66 N    1.028
    52   6 C    3.940 --    54 C    1.466    51 C    1.342    55 H    0.965
                            56 C    0.104
    53   6 C    3.950 --    56 C    1.416    51 C    1.406    68 H    0.962
    54   6 C    3.950 --    52 C    1.466    57 C    1.358    58 H    0.965
    55   1 H    0.995 --    52 C    0.965
    56   6 C    3.945 --    53 C    1.416    57 C    1.393    59 H    0.964
                            52 C    0.104
    57   6 C    3.877 --    56 C    1.393    54 C    1.358    61 Cl   1.003
    58   1 H    0.993 --    54 C    0.965
    59   1 H    0.993 --    56 C    0.964
    60  17 Cl   1.145 --    43 C    1.004
    61  17 Cl   1.133 --    57 C    1.003
    62   7 N    3.408 --    64 C    1.171    46 C    1.078    63 H    0.854
                            65 O    0.139
    63   1 H    0.936 --    62 N    0.854
    64   6 C    3.937 --    65 O    1.655    62 N    1.171    66 N    1.046
    65   8 O    1.970 --    64 C    1.655    62 N    0.139    66 N    0.116
    66   7 N    3.263 --    64 C    1.046    51 C    1.028    67 H    0.935
                            65 O    0.116
    67   1 H    0.968 --    66 N    0.935
    68   1 H    0.993 --    53 C    0.962
    69   1 H    0.987 --    47 C    0.945
    70  17 Cl   1.179 --    48 C    0.919
 ---------------------------------------------------------------------------

Topologies differ in total number of bonds
Writing topology from bond orders to xtbtopo.mol

molecular dipole:
                 x           y           z       tot (Debye)
 q only:        0.634      -3.184      -3.287
   full:        0.685      -2.857      -3.764      12.137
molecular quadrupole (traceless):
                xx          xy          yy          xz          yz          zz
 q only:       67.356      -1.287       4.748      19.072     -46.661     -72.104
  q+dip:       72.666      -2.208      -6.999       1.947     -50.520     -65.667
   full:       74.709      -3.450      -8.069       2.553     -48.917     -66.640


           -------------------------------------------------
          | TOTAL ENERGY             -142.871896873745 Eh   |
          | GRADIENT NORM               0.264323921783 Eh/α |
          | HOMO-LUMO GAP               0.262150352563 eV   |
           -------------------------------------------------

------------------------------------------------------------------------
 * finished run on 2025/04/07 at 09:40:49.777     
------------------------------------------------------------------------
 total:
 * wall-time:     0 d,  0 h,  0 min,  0.235 sec
 *  cpu-time:     0 d,  0 h,  0 min,  1.436 sec
 * ratio c/w:     6.107 speedup
 SCF:
 * wall-time:     0 d,  0 h,  0 min,  0.166 sec
 *  cpu-time:     0 d,  0 h,  0 min,  1.299 sec
 * ratio c/w:     7.835 speedup

