      -----------------------------------------------------------      
     |                   =====================                   |     
     |                           x T B                           |     
     |                   =====================                   |     
     |                         S. Grimme                         |     
     |          Mulliken Center for Theoretical Chemistry        |     
     |                    University of Bonn                     |     
      -----------------------------------------------------------      

   * xtb version 6.6.1 (8d0f1dd) compiled by 'stahn@M-Bot' on 2023-08-01

   xtb is free software: you can redistribute it and/or modify it under
   the terms of the GNU Lesser General Public License as published by
   the Free Software Foundation, either version 3 of the License, or
   (at your option) any later version.
   
   xtb is distributed in the hope that it will be useful,
   but WITHOUT ANY WARRANTY; without even the implied warranty of
   MERCHANTABILITY or FITNESS FOR A PARTICULAR PURPOSE.  See the
   GNU Lesser General Public License for more details.
   
   Cite this work as:
   * C. Bannwarth, E. Caldeweyher, S. Ehlert, A. Hansen, P. Pracht,
     J. Seibert, S. Spicher, S. Grimme, WIREs Comput. Mol. Sci., 2020, 11,
     e01493. DOI: 10.1002/wcms.1493
   
   for GFN2-xTB:
   * C. Bannwarth, S. Ehlert and S. Grimme., J. Chem. Theory Comput., 2019,
     15, 1652-1671. DOI: 10.1021/acs.jctc.8b01176
   for GFN1-xTB:
   * S. Grimme, C. Bannwarth, P. Shushkov, J. Chem. Theory Comput., 2017,
     13, 1989-2009. DOI: 10.1021/acs.jctc.7b00118
   for GFN0-xTB:
   * P. Pracht, E. Caldeweyher, S. Ehlert, S. Grimme, ChemRxiv, 2019, preprint.
     DOI: 10.26434/chemrxiv.8326202.v1
   for GFN-FF:
   * S. Spicher and S. Grimme, Angew. Chem. Int. Ed., 2020, 59, 15665-15673.
     DOI: 10.1002/anie.202004239
   
   for ALPB and GBSA implicit solvation:
   * S. Ehlert, M. Stahn, S. Spicher, S. Grimme, J. Chem. Theory Comput.,
     2021, 17, 4250-4261. DOI: 10.1021/acs.jctc.1c00471
   
   for DFT-D4:
   * E. Caldeweyher, C. Bannwarth and S. Grimme, J. Chem. Phys., 2017,
     147, 034112. DOI: 10.1063/1.4993215
   * E. Caldeweyher, S. Ehlert, A. Hansen, H. Neugebauer, S. Spicher,
     C. Bannwarth and S. Grimme, J. Chem. Phys., 2019, 150, 154122.
     DOI: 10.1063/1.5090222
   * E. Caldeweyher, J.-M. Mewes, S. Ehlert and S. Grimme, Phys. Chem. Chem. Phys.
     2020, 22, 8499-8512. DOI: 10.1039/D0CP00502A
   
   for sTDA-xTB:
   * S. Grimme and C. Bannwarth, J. Chem. Phys., 2016, 145, 054103.
     DOI: 10.1063/1.4959605
   
   in the mass-spec context:
   * V. Asgeirsson, C. Bauer and S. Grimme, Chem. Sci., 2017, 8, 4879.
     DOI: 10.1039/c7sc00601b
   * J. Koopman and S. Grimme, ACS Omega 2019, 4, 12, 15120-15133.
     DOI: 10.1021/acsomega.9b02011
   
   for metadynamics refer to:
   * S. Grimme, J. Chem. Theory Comput., 2019, 155, 2847-2862
     DOI: 10.1021/acs.jctc.9b00143
   
   for SPH calculations refer to:
   * S. Spicher and S. Grimme, J. Chem. Theory Comput., 2021, 17, 1701-1714
     DOI: 10.1021/acs.jctc.0c01306
   
   with help from (in alphabetical order)
   P. Atkinson, C. Bannwarth, F. Bohle, G. Brandenburg, E. Caldeweyher
   M. Checinski, S. Dohm, S. Ehlert, S. Ehrlich, I. Gerasimov, C. Hölzer
   A. Katbashev, J. Koopman, C. Lavigne, S. Lehtola, F. März, M. Müller,
   F. Musil, H. Neugebauer, J. Pisarek, C. Plett, P. Pracht, F. Pultar,
   J. Seibert, P. Shushkov, S. Spicher, M. Stahn, M. Steiner, T. Strunk,
   J. Stückrath, T. Rose, and J. Unsleber
   
 * started run on 2025/04/07 at 09:40:49.792     

           -------------------------------------------------
          |                Calculation Setup                |
           -------------------------------------------------

          program call               : xtb 529.xyz --input 529.inp
          hostname                   : serv11
          coordinate file            : 529.xyz
          omp threads                :                     8

   ID    Z sym.   atoms
    1    8 O      1, 4, 7, 10, 13, 16, 19, 22, 25, 28, 31, 34, 37, 40, 65
    2    1 H      2, 3, 5, 6, 8, 9, 11, 12, 14, 15, 17, 18, 20, 21, 23, 24,
                  26, 27, 29, 30, 33, 36, 39, 42, 49, 50, 55, 58, 59, 63,
                  67-69
    3   17 Cl     32, 35, 38, 41, 60, 61, 70
    4    6 C      43-48, 51-54, 56, 57, 64
    5    7 N      62, 66

molecular fragmentation (1/2 indicates fragments):
1112222222222222222222222222222222222222222222222222222222222222222222
# atoms in fragment 1/2:     3    67
 fragment masses (1/2) :       18.02      687.56
CMA distance (Bohr)    :  10.616
constraining FC (au)   :  0.0500

           -------------------------------------------------
          |                 G F N 2 - x T B                 |
           -------------------------------------------------

        Reference                      10.1021/acs.jctc.8b01176
      * Hamiltonian:
        H0-scaling (s, p, d)           1.850000    2.230000    2.230000
        zeta-weighting                 0.500000
      * Dispersion:
        s8                             2.700000
        a1                             0.520000
        a2                             5.000000
        s9                             5.000000
      * Repulsion:
        kExp                           1.500000    1.000000
        rExp                           1.000000
      * Coulomb:
        alpha                          2.000000
        third order                    shell-resolved
        anisotropic                    true
        a3                             3.000000
        a5                             4.000000
        cn-shift                       1.200000
        cn-exp                         4.000000
        max-rad                        5.000000

q/qsh data taken from xtbrestart
CAMM data taken from xtbrestart

          ...................................................
          :                      SETUP                      :
          :.................................................:
          :  # basis functions                 223          :
          :  # atomic orbitals                 216          :
          :  # shells                          114          :
          :  # electrons                       234          :
          :  max. iterations                   800          :
          :  Hamiltonian                  GFN2-xTB          :
          :  restarted?                       true          :
          :  GBSA solvation                  false          :
          :  PC potential                    false          :
          :  electronic temp.         6000.0000000     K    :
          :  accuracy                    1.0000000          :
          :  -> integral cutoff          0.2500000E+02      :
          :  -> integral neglect         0.1000000E-07      :
          :  -> SCF convergence          0.1000000E-05 Eh   :
          :  -> wf. convergence          0.1000000E-03 e    :
          :  Broyden damping             0.4000000          :
          ...................................................

 iter      E             dE          RMSdq      gap      omega  full diag
   1   -143.4542056 -0.143454E+03  0.324E+00    0.23       0.0  T
   2   -142.0252687  0.142894E+01  0.399E+00    0.88       1.0  T
   3   -143.7152451 -0.168998E+01  0.197E+00    0.09       1.0  T
   4   -143.5590197  0.156225E+00  0.178E+00    0.26       1.0  T
   5   -143.6723397 -0.113320E+00  0.155E+00    0.01       1.0  T
   6   -143.8765891 -0.204249E+00  0.633E-01    0.03       1.0  T
   7   -143.9027432 -0.261541E-01  0.217E-01    0.01       1.0  T
   8   -143.9053311 -0.258790E-02  0.124E-01    0.07       1.0  T
   9   -143.9052799  0.512382E-04  0.957E-02    0.08       1.0  T
  10   -143.9057374 -0.457487E-03  0.619E-02    0.08       1.0  T
  11   -143.9056718  0.655698E-04  0.559E-02    0.07       1.0  T
  12   -143.9058622 -0.190463E-03  0.347E-02    0.07       1.0  T
  13   -143.9059169 -0.546237E-04  0.215E-02    0.07       1.0  T
  14   -143.9059455 -0.285860E-04  0.125E-02    0.07       1.0  T
  15   -143.9059523 -0.686513E-05  0.865E-03    0.07       1.4  T
  16   -143.9059545 -0.216676E-05  0.601E-03    0.07       2.0  T
  17   -143.9059564 -0.195900E-05  0.343E-03    0.07       3.5  T
  18   -143.9059567 -0.279313E-06  0.213E-03    0.07       5.6  T
  19   -143.9059570 -0.237811E-06  0.115E-03    0.07      10.4  T
  20   -143.9059570 -0.372937E-07  0.796E-04    0.07      15.0  T
  21   -143.9059570 -0.269647E-07  0.516E-04    0.07      23.2  T

   *** convergence criteria satisfied after 21 iterations ***

         #    Occupation            Energy/Eh            Energy/eV
      -------------------------------------------------------------
         1        2.0000           -1.0856794             -29.5428
       ...           ...                  ...                  ...
       111        1.8812           -0.4156859             -11.3114
       112        1.8173           -0.4068456             -11.0708
       113        1.7765           -0.4025867             -10.9549
       114        1.7370           -0.3990638             -10.8591
       115        1.7342           -0.3988341             -10.8528
       116        1.7314           -0.3986070             -10.8466
       117        1.7250           -0.3980888             -10.8325 (HOMO)
       118        1.6893           -0.3953738             -10.7587 (LUMO)
       119        0.3910           -0.3363193              -9.1517
       120        0.0736           -0.3011561              -8.1949
       121        0.0328           -0.2854368              -7.7671
       122        0.0262           -0.2810540              -7.6479
       ...           ...                  ...                  ...
       216                          0.6467082              17.5978
      -------------------------------------------------------------
                  HL-Gap            0.0027151 Eh            0.0739 eV
             Fermi-level           -0.3631979 Eh           -9.8831 eV

 SCC (total)                   0 d,  0 h,  0 min,  0.170 sec
 SCC setup                      ...        0 min,  0.000 sec (  0.213%)
 Dispersion                     ...        0 min,  0.001 sec (  0.425%)
 classical contributions        ...        0 min,  0.000 sec (  0.050%)
 integral evaluation            ...        0 min,  0.036 sec ( 21.285%)
 iterations                     ...        0 min,  0.121 sec ( 71.079%)
 molecular gradient             ...        0 min,  0.011 sec (  6.669%)
 printout                       ...        0 min,  0.000 sec (  0.241%)

         :::::::::::::::::::::::::::::::::::::::::::::::::::::
         ::                     SUMMARY                     ::
         :::::::::::::::::::::::::::::::::::::::::::::::::::::
         :: total energy            -142.836710018843 Eh    ::
         :: gradient norm              0.294170342796 Eh/a0 ::
         :: HOMO-LUMO gap              0.073880357454 eV    ::
         ::.................................................::
         :: SCC energy              -143.905957028298 Eh    ::
         :: -> isotropic ES            0.474840061633 Eh    ::
         :: -> anisotropic ES         -0.031043872888 Eh    ::
         :: -> anisotropic XC          0.001318963086 Eh    ::
         :: -> dispersion             -0.066723221783 Eh    ::
         :: repulsion energy           1.066884105991 Eh    ::
         :: add. restraining           0.000000000000 Eh    ::
         :: total charge               0.000000000001 e     ::
         :::::::::::::::::::::::::::::::::::::::::::::::::::::

           -------------------------------------------------
          |                Property Printout                |
           -------------------------------------------------

    * Orbital Energies and Occupations

         #    Occupation            Energy/Eh            Energy/eV
      -------------------------------------------------------------
         1        2.0000           -1.0856794             -29.5428
       ...           ...                  ...                  ...
       105        1.9647           -0.4395515             -11.9608
       106        1.9604           -0.4373294             -11.9003
       107        1.9576           -0.4360131             -11.8645
       108        1.9429           -0.4302184             -11.7068
       109        1.9211           -0.4238579             -11.5338
       110        1.9200           -0.4235873             -11.5264
       111        1.8812           -0.4156859             -11.3114
       112        1.8173           -0.4068456             -11.0708
       113        1.7765           -0.4025867             -10.9549
       114        1.7370           -0.3990638             -10.8591
       115        1.7342           -0.3988341             -10.8528
       116        1.7314           -0.3986070             -10.8466
       117        1.7250           -0.3980888             -10.8325 (HOMO)
       118        1.6893           -0.3953738             -10.7587 (LUMO)
       119        0.3910           -0.3363193              -9.1517
       120        0.0736           -0.3011561              -8.1949
       121        0.0328           -0.2854368              -7.7671
       122        0.0262           -0.2810540              -7.6479
       123        0.0116           -0.2654714              -7.2238
       124        0.0085           -0.2595153              -7.0618
       125        0.0051           -0.2499537              -6.8016
       126        0.0004           -0.2004374              -5.4542
       127        0.0002           -0.1883687              -5.1258
       128        0.0001           -0.1757791              -4.7832
       ...           ...                  ...                  ...
       216                          0.6467082              17.5978
      -------------------------------------------------------------
                  HL-Gap            0.0027151 Eh            0.0739 eV
             Fermi-level           -0.3631979 Eh           -9.8831 eV

     #   Z          covCN         q      C6AA      α(0)
     1   8 O        1.614    -0.568    24.426     6.671
     2   1 H        0.806     0.287     0.760     1.369
     3   1 H        0.807     0.289     0.755     1.364
     4   8 O        1.610    -0.578    24.664     6.703
     5   1 H        0.808     0.304     0.708     1.322
     6   1 H        0.802     0.289     0.755     1.365
     7   8 O        1.557    -0.575    24.639     6.697
     8   1 H        0.776     0.296     0.741     1.355
     9   1 H        0.782     0.283     0.778     1.388
    10   8 O        1.596    -0.565    24.372     6.662
    11   1 H        0.802     0.296     0.734     1.346
    12   1 H        0.794     0.321     0.664     1.281
    13   8 O        1.606    -0.644    26.264     6.917
    14   1 H        0.809     0.305     0.705     1.319
    15   1 H        0.797     0.328     0.644     1.261
    16   8 O        1.612    -0.574    24.567     6.690
    17   1 H        0.806     0.276     0.796     1.401
    18   1 H        0.806     0.307     0.700     1.314
    19   8 O        1.629    -0.580    24.711     6.710
    20   1 H        0.806     0.286     0.766     1.374
    21   1 H        0.813     0.308     0.696     1.309
    22   8 O        1.609    -0.562    24.307     6.654
    23   1 H        0.804     0.286     0.763     1.373
    24   1 H        0.805     0.284     0.770     1.379
    25   8 O        1.600    -0.564    24.356     6.660
    26   1 H        0.795     0.294     0.741     1.353
    27   1 H        0.805     0.284     0.771     1.379
    28   8 O        1.616    -0.573    24.536     6.686
    29   1 H        0.808     0.290     0.752     1.362
    30   1 H        0.807     0.297     0.730     1.342
    31   8 O        1.741    -0.361    20.074     6.050
    32  17 Cl       0.963     0.126    95.494    14.950
    33   1 H        0.810     0.333     0.630     1.246
    34   8 O        0.989    -0.392    21.454     6.213
    35  17 Cl       0.938     0.152    94.733    14.890
    36   1 H        0.257     0.363     1.312     2.084
    37   8 O        1.014    -0.570    25.293     6.747
    38  17 Cl       0.000    -0.203    98.645    15.116
    39   1 H        0.808     0.287     0.761     1.370
    40   8 O        1.569    -0.479    22.494     6.399
    41  17 Cl       0.767    -0.054   100.667    15.348
    42   1 H        0.802     0.279     0.789     1.396
    43   6 C        2.976     0.067    26.485     8.442
    44   6 C        2.946    -0.042    29.042     8.839
    45   6 C        2.931    -0.062    29.545     8.914
    46   6 C        2.908     0.074    26.336     8.415
    47   6 C        2.969    -0.064    29.577     8.921
    48   6 C        2.929     0.093    25.930     8.351
    49   1 H        0.924     0.087     1.908     2.160
    50   1 H        0.926     0.080     1.980     2.200
    51   6 C        2.914     0.080    26.221     8.397
    52   6 C        2.933    -0.046    29.135     8.852
    53   6 C        3.007    -0.068    29.680     8.937
    54   6 C        2.978    -0.046    29.124     8.852
    55   1 H        0.927     0.111     1.691     2.033
    56   6 C        2.978    -0.034    28.848     8.810
    57   6 C        2.930     0.094    25.905     8.347
    58   1 H        0.924     0.072     2.067     2.249
    59   1 H        0.924     0.072     2.069     2.249
    60  17 Cl       1.119    -0.109   102.572    15.495
    61  17 Cl       0.994    -0.103   102.372    15.479
    62   7 N        2.733    -0.171    24.692     7.380
    63   1 H        0.859     0.239     0.925     1.507
    64   6 C        2.685     0.346    21.129     7.522
    65   8 O        0.857    -0.426    22.199     6.317
    66   7 N        2.715    -0.206    25.487     7.498
    67   1 H        0.860     0.224     0.991     1.559
    68   1 H        0.923     0.069     2.102     2.267
    69   1 H        0.927     0.089     1.887     2.148
    70  17 Cl       1.086    -0.031   100.172    15.312

 Mol. C6AA /au·bohr⁶  :      63946.925953
 Mol. C8AA /au·bohr⁸  :    1695935.398890
 Mol. α(0) /au        :        383.268546


Wiberg/Mayer (AO) data.
largest (>0.10) Wiberg bond orders for each atom

 ---------------------------------------------------------------------------
     #   Z sym  total        # sym  WBO       # sym  WBO       # sym  WBO
 ---------------------------------------------------------------------------
     1   8 O    1.826 --     2 H    0.913     3 H    0.912
     2   1 H    0.917 --     1 O    0.913
     3   1 H    0.916 --     1 O    0.912
     4   8 O    1.828 --     6 H    0.908     5 H    0.901
     5   1 H    0.907 --     4 O    0.901
     6   1 H    0.916 --     4 O    0.908
     7   8 O    1.802 --     9 H    0.903     8 H    0.882
     8   1 H    0.912 --     7 O    0.882
     9   1 H    0.920 --     7 O    0.903
    10   8 O    1.883 --    11 H    0.907    12 H    0.882
    11   1 H    0.912 --    10 O    0.907
    12   1 H    0.897 --    10 O    0.882
    13   8 O    1.775 --    14 H    0.852    15 H    0.827
    14   1 H    0.907 --    13 O    0.852
    15   1 H    0.892 --    13 O    0.827
    16   8 O    1.823 --    17 H    0.919    18 H    0.895
    17   1 H    0.923 --    16 O    0.919
    18   1 H    0.906 --    16 O    0.895
    19   8 O    1.815 --    20 H    0.916    21 H    0.881
    20   1 H    0.918 --    19 O    0.916
    21   1 H    0.905 --    19 O    0.881
    22   8 O    1.836 --    24 H    0.919    23 H    0.917
    23   1 H    0.918 --    22 O    0.917
    24   1 H    0.919 --    22 O    0.919
    25   8 O    1.842 --    27 H    0.909    26 H    0.905
    26   1 H    0.914 --    25 O    0.905
    27   1 H    0.919 --    25 O    0.909
    28   8 O    1.813 --    29 H    0.907    30 H    0.903
    29   1 H    0.916 --    28 O    0.907
    30   1 H    0.912 --    28 O    0.903
    31   8 O    1.934 --    32 Cl   1.051    33 H    0.882
    32  17 Cl   1.096 --    31 O    1.051
    33   1 H    0.888 --    31 O    0.882
    34   8 O    1.511 --    35 Cl   1.132    36 H    0.320
    35  17 Cl   1.146 --    34 O    1.132
    36   1 H    0.863 --    37 O    0.539    34 O    0.320
    37   8 O    1.511 --    39 H    0.906    36 H    0.539
    38  17 Cl   0.000
    39   1 H    0.916 --    37 O    0.906
    40   8 O    1.602 --    42 H    0.918    41 Cl   0.677
    41  17 Cl   0.708 --    40 O    0.677
    42   1 H    0.919 --    40 O    0.918
    43   6 C    3.845 --    44 C    1.424    48 C    1.276    60 Cl   0.988
    44   6 C    3.943 --    43 C    1.424    45 C    1.411    49 H    0.957
    45   6 C    3.897 --    44 C    1.411    46 C    1.318    50 H    0.961
    46   6 C    3.916 --    47 C    1.364    45 C    1.318    62 N    1.079
    47   6 C    3.936 --    48 C    1.406    46 C    1.364    69 H    0.943
    48   6 C    3.871 --    47 C    1.406    43 C    1.276    70 Cl   1.036
    49   1 H    0.990 --    44 C    0.957
    50   1 H    0.991 --    45 C    0.961
    51   6 C    3.915 --    52 C    1.404    53 C    1.263    66 N    1.085
    52   6 C    3.939 --    54 C    1.423    51 C    1.404    55 H    0.935
    53   6 C    3.922 --    56 C    1.502    51 C    1.263    68 H    0.941
    54   6 C    3.917 --    52 C    1.423    57 C    1.356    58 H    0.965
    55   1 H    0.983 --    52 C    0.935
    56   6 C    3.953 --    53 C    1.502    57 C    1.343    59 H    0.959
    57   6 C    3.840 --    54 C    1.356    56 C    1.343    61 Cl   1.008
    58   1 H    0.991 --    54 C    0.965
    59   1 H    0.991 --    56 C    0.959
    60  17 Cl   1.113 --    43 C    0.988
    61  17 Cl   1.138 --    57 C    1.008
    62   7 N    3.434 --    64 C    1.186    46 C    1.079    63 H    0.886
                            65 O    0.135
    63   1 H    0.941 --    62 N    0.886
    64   6 C    3.921 --    65 O    1.644    62 N    1.186    66 N    0.989
    65   8 O    1.977 --    64 C    1.644    62 N    0.135
    66   7 N    3.214 --    51 C    1.085    64 C    0.989    67 H    0.897
    67   1 H    0.946 --    66 N    0.897
    68   1 H    0.990 --    53 C    0.941
    69   1 H    0.990 --    47 C    0.943
    70  17 Cl   1.191 --    48 C    1.036
 ---------------------------------------------------------------------------

Topologies differ in total number of bonds
Writing topology from bond orders to xtbtopo.mol

molecular dipole:
                 x           y           z       tot (Debye)
 q only:       -1.225      -3.733      -2.790
   full:       -2.190      -3.867      -4.041      15.266
molecular quadrupole (traceless):
                xx          xy          yy          xz          yz          zz
 q only:       70.409      10.773       2.354       8.241     -26.837     -72.763
  q+dip:       63.445      16.429     -10.492     -11.818     -26.841     -52.953
   full:       65.518      17.340     -11.216     -10.568     -26.444     -54.302


           -------------------------------------------------
          | TOTAL ENERGY             -142.836710018843 Eh   |
          | GRADIENT NORM               0.294170342796 Eh/α |
          | HOMO-LUMO GAP               0.073880357454 eV   |
           -------------------------------------------------

------------------------------------------------------------------------
 * finished run on 2025/04/07 at 09:40:50.041     
------------------------------------------------------------------------
 total:
 * wall-time:     0 d,  0 h,  0 min,  0.248 sec
 *  cpu-time:     0 d,  0 h,  0 min,  1.476 sec
 * ratio c/w:     5.948 speedup
 SCF:
 * wall-time:     0 d,  0 h,  0 min,  0.171 sec
 *  cpu-time:     0 d,  0 h,  0 min,  1.336 sec
 * ratio c/w:     7.834 speedup

