      -----------------------------------------------------------      
     |                   =====================                   |     
     |                           x T B                           |     
     |                   =====================                   |     
     |                         S. Grimme                         |     
     |          Mulliken Center for Theoretical Chemistry        |     
     |                    University of Bonn                     |     
      -----------------------------------------------------------      

   * xtb version 6.6.1 (8d0f1dd) compiled by 'stahn@M-Bot' on 2023-08-01

   xtb is free software: you can redistribute it and/or modify it under
   the terms of the GNU Lesser General Public License as published by
   the Free Software Foundation, either version 3 of the License, or
   (at your option) any later version.
   
   xtb is distributed in the hope that it will be useful,
   but WITHOUT ANY WARRANTY; without even the implied warranty of
   MERCHANTABILITY or FITNESS FOR A PARTICULAR PURPOSE.  See the
   GNU Lesser General Public License for more details.
   
   Cite this work as:
   * C. Bannwarth, E. Caldeweyher, S. Ehlert, A. Hansen, P. Pracht,
     J. Seibert, S. Spicher, S. Grimme, WIREs Comput. Mol. Sci., 2020, 11,
     e01493. DOI: 10.1002/wcms.1493
   
   for GFN2-xTB:
   * C. Bannwarth, S. Ehlert and S. Grimme., J. Chem. Theory Comput., 2019,
     15, 1652-1671. DOI: 10.1021/acs.jctc.8b01176
   for GFN1-xTB:
   * S. Grimme, C. Bannwarth, P. Shushkov, J. Chem. Theory Comput., 2017,
     13, 1989-2009. DOI: 10.1021/acs.jctc.7b00118
   for GFN0-xTB:
   * P. Pracht, E. Caldeweyher, S. Ehlert, S. Grimme, ChemRxiv, 2019, preprint.
     DOI: 10.26434/chemrxiv.8326202.v1
   for GFN-FF:
   * S. Spicher and S. Grimme, Angew. Chem. Int. Ed., 2020, 59, 15665-15673.
     DOI: 10.1002/anie.202004239
   
   for ALPB and GBSA implicit solvation:
   * S. Ehlert, M. Stahn, S. Spicher, S. Grimme, J. Chem. Theory Comput.,
     2021, 17, 4250-4261. DOI: 10.1021/acs.jctc.1c00471
   
   for DFT-D4:
   * E. Caldeweyher, C. Bannwarth and S. Grimme, J. Chem. Phys., 2017,
     147, 034112. DOI: 10.1063/1.4993215
   * E. Caldeweyher, S. Ehlert, A. Hansen, H. Neugebauer, S. Spicher,
     C. Bannwarth and S. Grimme, J. Chem. Phys., 2019, 150, 154122.
     DOI: 10.1063/1.5090222
   * E. Caldeweyher, J.-M. Mewes, S. Ehlert and S. Grimme, Phys. Chem. Chem. Phys.
     2020, 22, 8499-8512. DOI: 10.1039/D0CP00502A
   
   for sTDA-xTB:
   * S. Grimme and C. Bannwarth, J. Chem. Phys., 2016, 145, 054103.
     DOI: 10.1063/1.4959605
   
   in the mass-spec context:
   * V. Asgeirsson, C. Bauer and S. Grimme, Chem. Sci., 2017, 8, 4879.
     DOI: 10.1039/c7sc00601b
   * J. Koopman and S. Grimme, ACS Omega 2019, 4, 12, 15120-15133.
     DOI: 10.1021/acsomega.9b02011
   
   for metadynamics refer to:
   * S. Grimme, J. Chem. Theory Comput., 2019, 155, 2847-2862
     DOI: 10.1021/acs.jctc.9b00143
   
   for SPH calculations refer to:
   * S. Spicher and S. Grimme, J. Chem. Theory Comput., 2021, 17, 1701-1714
     DOI: 10.1021/acs.jctc.0c01306
   
   with help from (in alphabetical order)
   P. Atkinson, C. Bannwarth, F. Bohle, G. Brandenburg, E. Caldeweyher
   M. Checinski, S. Dohm, S. Ehlert, S. Ehrlich, I. Gerasimov, C. Hölzer
   A. Katbashev, J. Koopman, C. Lavigne, S. Lehtola, F. März, M. Müller,
   F. Musil, H. Neugebauer, J. Pisarek, C. Plett, P. Pracht, F. Pultar,
   J. Seibert, P. Shushkov, S. Spicher, M. Stahn, M. Steiner, T. Strunk,
   J. Stückrath, T. Rose, and J. Unsleber
   
 * started run on 2025/04/07 at 09:40:50.056     

           -------------------------------------------------
          |                Calculation Setup                |
           -------------------------------------------------

          program call               : xtb 539.xyz --input 539.inp
          hostname                   : serv11
          coordinate file            : 539.xyz
          omp threads                :                     8

   ID    Z sym.   atoms
    1    8 O      1, 4, 7, 10, 13, 16, 19, 22, 25, 28, 31, 34, 37, 40, 65
    2    1 H      2, 3, 5, 6, 8, 9, 11, 12, 14, 15, 17, 18, 20, 21, 23, 24,
                  26, 27, 29, 30, 33, 36, 39, 42, 49, 50, 55, 58, 59, 63,
                  67-69
    3   17 Cl     32, 35, 38, 41, 60, 61, 70
    4    6 C      43-48, 51-54, 56, 57, 64
    5    7 N      62, 66

molecular fragmentation (1/2 indicates fragments):
1112222222222222222222222222222222222222222222222222222222222222222222
# atoms in fragment 1/2:     3    67
 fragment masses (1/2) :       18.02      687.56
CMA distance (Bohr)    :  11.259
constraining FC (au)   :  0.0500

           -------------------------------------------------
          |                 G F N 2 - x T B                 |
           -------------------------------------------------

        Reference                      10.1021/acs.jctc.8b01176
      * Hamiltonian:
        H0-scaling (s, p, d)           1.850000    2.230000    2.230000
        zeta-weighting                 0.500000
      * Dispersion:
        s8                             2.700000
        a1                             0.520000
        a2                             5.000000
        s9                             5.000000
      * Repulsion:
        kExp                           1.500000    1.000000
        rExp                           1.000000
      * Coulomb:
        alpha                          2.000000
        third order                    shell-resolved
        anisotropic                    true
        a3                             3.000000
        a5                             4.000000
        cn-shift                       1.200000
        cn-exp                         4.000000
        max-rad                        5.000000

q/qsh data taken from xtbrestart
CAMM data taken from xtbrestart

          ...................................................
          :                      SETUP                      :
          :.................................................:
          :  # basis functions                 223          :
          :  # atomic orbitals                 216          :
          :  # shells                          114          :
          :  # electrons                       234          :
          :  max. iterations                   800          :
          :  Hamiltonian                  GFN2-xTB          :
          :  restarted?                       true          :
          :  GBSA solvation                  false          :
          :  PC potential                    false          :
          :  electronic temp.         6000.0000000     K    :
          :  accuracy                    1.0000000          :
          :  -> integral cutoff          0.2500000E+02      :
          :  -> integral neglect         0.1000000E-07      :
          :  -> SCF convergence          0.1000000E-05 Eh   :
          :  -> wf. convergence          0.1000000E-03 e    :
          :  Broyden damping             0.4000000          :
          ...................................................

 iter      E             dE          RMSdq      gap      omega  full diag
   1   -143.8246985 -0.143825E+03  0.326E+00    0.05       0.0  T
   2   -143.4037189  0.420980E+00  0.279E+00    0.01       1.0  T
   3   -143.7367955 -0.333077E+00  0.202E+00    0.04       1.0  T
   4   -143.7370192 -0.223672E-03  0.140E+00    0.23       1.0  T
   5   -143.7834237 -0.464045E-01  0.125E+00    0.04       1.0  T
   6   -143.8683139 -0.848902E-01  0.599E-01    0.04       1.0  T
   7   -143.8894892 -0.211753E-01  0.450E-01    0.01       1.0  T
   8   -143.9078600 -0.183708E-01  0.129E-01    0.04       1.0  T
   9   -143.9078571  0.295109E-05  0.972E-02    0.04       1.0  T
  10   -143.9082220 -0.364962E-03  0.687E-02    0.04       1.0  T
  11   -143.9079341  0.287884E-03  0.828E-02    0.04       1.0  T
  12   -143.9082805 -0.346374E-03  0.476E-02    0.04       1.0  T
  13   -143.9084770 -0.196527E-03  0.179E-02    0.04       1.0  T
  14   -143.9084908 -0.137528E-04  0.123E-02    0.04       1.0  T
  15   -143.9084956 -0.480907E-05  0.898E-03    0.04       1.3  T
  16   -143.9084937  0.187774E-05  0.892E-03    0.04       1.3  T
  17   -143.9084998 -0.609626E-05  0.300E-03    0.04       4.0  T
  18   -143.9085002 -0.327842E-06  0.159E-03    0.04       7.5  T
  19   -143.9085001  0.166679E-07  0.156E-03    0.04       7.6  T
  20   -143.9085002 -0.103915E-06  0.107E-03    0.04      11.2  T
  21   -143.9085003 -0.327007E-07  0.824E-04    0.04      14.5  T
  22   -143.9085003 -0.489240E-07  0.354E-04    0.04      33.8  T

   *** convergence criteria satisfied after 22 iterations ***

         #    Occupation            Energy/Eh            Energy/eV
      -------------------------------------------------------------
         1        2.0000           -1.0860083             -29.5518
       ...           ...                  ...                  ...
       111        1.9292           -0.4159044             -11.3173
       112        1.8837           -0.4060197             -11.0484
       113        1.8214           -0.3972265             -10.8091
       114        1.7509           -0.3901527             -10.6166
       115        1.7481           -0.3899097             -10.6100
       116        1.7442           -0.3895801             -10.6010
       117        1.6402           -0.3819238             -10.3927 (HOMO)
       118        1.6172           -0.3804829             -10.3535 (LUMO)
       119        0.1918           -0.3104739              -8.4484
       120        0.0523           -0.2843673              -7.7380
       121        0.0507           -0.2837724              -7.7218
       122        0.0344           -0.2762375              -7.5168
       ...           ...                  ...                  ...
       216                          0.8450964              22.9962
      -------------------------------------------------------------
                  HL-Gap            0.0014410 Eh            0.0392 eV
             Fermi-level           -0.3531015 Eh           -9.6084 eV

 SCC (total)                   0 d,  0 h,  0 min,  0.178 sec
 SCC setup                      ...        0 min,  0.000 sec (  0.204%)
 Dispersion                     ...        0 min,  0.001 sec (  0.422%)
 classical contributions        ...        0 min,  0.000 sec (  0.050%)
 integral evaluation            ...        0 min,  0.035 sec ( 19.718%)
 iterations                     ...        0 min,  0.130 sec ( 73.090%)
 molecular gradient             ...        0 min,  0.011 sec (  6.245%)
 printout                       ...        0 min,  0.000 sec (  0.232%)

         :::::::::::::::::::::::::::::::::::::::::::::::::::::
         ::                     SUMMARY                     ::
         :::::::::::::::::::::::::::::::::::::::::::::::::::::
         :: total energy            -142.884571012727 Eh    ::
         :: gradient norm              0.297199972112 Eh/a0 ::
         :: HOMO-LUMO gap              0.039210310938 eV    ::
         ::.................................................::
         :: SCC energy              -143.908500320588 Eh    ::
         :: -> isotropic ES            0.467239565683 Eh    ::
         :: -> anisotropic ES         -0.015804074691 Eh    ::
         :: -> anisotropic XC          0.005793459403 Eh    ::
         :: -> dispersion             -0.064347601595 Eh    ::
         :: repulsion energy           1.021742554277 Eh    ::
         :: add. restraining           0.000000000000 Eh    ::
         :: total charge               0.000000000001 e     ::
         :::::::::::::::::::::::::::::::::::::::::::::::::::::

           -------------------------------------------------
          |                Property Printout                |
           -------------------------------------------------

    * Orbital Energies and Occupations

         #    Occupation            Energy/Eh            Energy/eV
      -------------------------------------------------------------
         1        2.0000           -1.0860083             -29.5518
       ...           ...                  ...                  ...
       105        1.9722           -0.4340759             -11.8118
       106        1.9641           -0.4291538             -11.6779
       107        1.9599           -0.4269931             -11.6191
       108        1.9548           -0.4246775             -11.5561
       109        1.9531           -0.4239477             -11.5362
       110        1.9472           -0.4216505             -11.4737
       111        1.9292           -0.4159044             -11.3173
       112        1.8837           -0.4060197             -11.0484
       113        1.8214           -0.3972265             -10.8091
       114        1.7509           -0.3901527             -10.6166
       115        1.7481           -0.3899097             -10.6100
       116        1.7442           -0.3895801             -10.6010
       117        1.6402           -0.3819238             -10.3927 (HOMO)
       118        1.6172           -0.3804829             -10.3535 (LUMO)
       119        0.1918           -0.3104739              -8.4484
       120        0.0523           -0.2843673              -7.7380
       121        0.0507           -0.2837724              -7.7218
       122        0.0344           -0.2762375              -7.5168
       123        0.0205           -0.2662924              -7.2462
       124        0.0138           -0.2586204              -7.0374
       125        0.0021           -0.2232181              -6.0741
       126        0.0006           -0.1983643              -5.3978
       127        0.0002           -0.1786253              -4.8606
       128        0.0001           -0.1613755              -4.3913
       ...           ...                  ...                  ...
       216                          0.8450964              22.9962
      -------------------------------------------------------------
                  HL-Gap            0.0014410 Eh            0.0392 eV
             Fermi-level           -0.3531015 Eh           -9.6084 eV

     #   Z          covCN         q      C6AA      α(0)
     1   8 O        1.601    -0.552    24.078     6.622
     2   1 H        0.805     0.282     0.778     1.385
     3   1 H        0.796     0.290     0.755     1.366
     4   8 O        1.576    -0.576    24.648     6.699
     5   1 H        0.770     0.291     0.757     1.370
     6   1 H        0.806     0.294     0.739     1.350
     7   8 O        1.681    -0.577    24.608     6.697
     8   1 H        0.799     0.326     0.647     1.264
     9   1 H        0.808     0.304     0.707     1.321
    10   8 O        1.614    -0.558    24.190     6.638
    11   1 H        0.806     0.295     0.737     1.348
    12   1 H        0.808     0.300     0.719     1.332
    13   8 O        1.595    -0.565    24.376     6.663
    14   1 H        0.798     0.288     0.759     1.369
    15   1 H        0.796     0.284     0.773     1.382
    16   8 O        1.595    -0.564    24.341     6.658
    17   1 H        0.801     0.284     0.772     1.380
    18   1 H        0.794     0.287     0.764     1.374
    19   8 O        1.610    -0.567    24.417     6.669
    20   1 H        0.805     0.288     0.757     1.366
    21   1 H        0.805     0.283     0.773     1.381
    22   8 O        1.611    -0.567    24.401     6.667
    23   1 H        0.805     0.296     0.734     1.346
    24   1 H        0.806     0.286     0.763     1.372
    25   8 O        1.612    -0.570    24.479     6.678
    26   1 H        0.807     0.285     0.769     1.377
    27   1 H        0.805     0.289     0.754     1.364
    28   8 O        1.603    -0.561    24.272     6.649
    29   1 H        0.804     0.287     0.761     1.370
    30   1 H        0.799     0.293     0.744     1.355
    31   8 O        1.732    -0.393    20.697     6.143
    32  17 Cl       0.932     0.048    97.773    15.127
    33   1 H        0.802     0.321     0.662     1.278
    34   8 O        0.939    -0.419    22.019     6.293
    35  17 Cl       0.939     0.177    94.023    14.835
    36   1 H        0.741     0.306     0.720     1.341
    37   8 O        1.538    -0.544    23.956     6.603
    38  17 Cl       0.000    -0.243    99.895    15.211
    39   1 H        0.797     0.281     0.783     1.391
    40   8 O        1.636    -0.454    21.945     6.323
    41  17 Cl       0.913    -0.005    99.333    15.248
    42   1 H        0.802     0.298     0.728     1.340
    43   6 C        2.872     0.074    26.352     8.415
    44   6 C        2.945    -0.022    28.562     8.765
    45   6 C        2.907    -0.032    28.804     8.800
    46   6 C        2.909     0.091    25.985     8.359
    47   6 C        2.983    -0.051    29.268     8.874
    48   6 C        2.915     0.091    25.974     8.357
    49   1 H        0.926     0.094     1.844     2.124
    50   1 H        0.926     0.113     1.667     2.019
    51   6 C        2.899     0.088    26.044     8.368
    52   6 C        2.917    -0.026    28.654     8.778
    53   6 C        2.965    -0.042    29.038     8.839
    54   6 C        2.946    -0.041    29.029     8.837
    55   1 H        0.927     0.091     1.873     2.140
    56   6 C        3.037    -0.031    28.735     8.792
    57   6 C        2.912     0.089    26.022     8.365
    58   1 H        0.925     0.072     2.068     2.249
    59   1 H        0.927     0.076     2.020     2.222
    60  17 Cl       0.900    -0.103   102.335    15.476
    61  17 Cl       1.052    -0.114   102.714    15.505
    62   7 N        2.748    -0.217    25.730     7.534
    63   1 H        0.859     0.172     1.263     1.761
    64   6 C        2.690     0.355    20.966     7.494
    65   8 O        0.858    -0.330    20.325     6.045
    66   7 N        2.751    -0.204    25.441     7.491
    67   1 H        0.860     0.210     1.056     1.609
    68   1 H        0.923     0.070     2.084     2.258
    69   1 H        0.924     0.073     2.057     2.243
    70  17 Cl       0.991    -0.093   102.048    15.455

 Mol. C6AA /au·bohr⁶  :      63642.799627
 Mol. C8AA /au·bohr⁸  :    1689025.917712
 Mol. α(0) /au        :        382.119242


Wiberg/Mayer (AO) data.
largest (>0.10) Wiberg bond orders for each atom

 ---------------------------------------------------------------------------
     #   Z sym  total        # sym  WBO       # sym  WBO       # sym  WBO
 ---------------------------------------------------------------------------
     1   8 O    1.844 --     2 H    0.919     3 H    0.914
     2   1 H    0.920 --     1 O    0.919
     3   1 H    0.916 --     1 O    0.914
     4   8 O    1.843 --     5 H    0.914     6 H    0.912
     5   1 H    0.915 --     4 O    0.914
     6   1 H    0.913 --     4 O    0.912
     7   8 O    1.882 --     9 H    0.894     8 H    0.878
     8   1 H    0.893 --     7 O    0.878
     9   1 H    0.907 --     7 O    0.894
    10   8 O    1.817 --    11 H    0.910    12 H    0.904
    11   1 H    0.913 --    10 O    0.910
    12   1 H    0.910 --    10 O    0.904
    13   8 O    1.827 --    14 H    0.905    15 H    0.894
    14   1 H    0.916 --    13 O    0.905
    15   1 H    0.919 --    13 O    0.894
    16   8 O    1.837 --    17 H    0.915    18 H    0.915
    17   1 H    0.919 --    16 O    0.915
    18   1 H    0.918 --    16 O    0.915
    19   8 O    1.835 --    21 H    0.919    20 H    0.912
    20   1 H    0.917 --    19 O    0.912
    21   1 H    0.920 --    19 O    0.919
    22   8 O    1.830 --    24 H    0.918    23 H    0.912
    23   1 H    0.912 --    22 O    0.912
    24   1 H    0.918 --    22 O    0.918
    25   8 O    1.837 --    26 H    0.918    27 H    0.914
    26   1 H    0.919 --    25 O    0.918
    27   1 H    0.916 --    25 O    0.914
    28   8 O    1.831 --    29 H    0.916    30 H    0.913
    29   1 H    0.917 --    28 O    0.916
    30   1 H    0.914 --    28 O    0.913
    31   8 O    1.898 --    32 Cl   1.009    33 H    0.886
    32  17 Cl   1.021 --    31 O    1.009
    33   1 H    0.895 --    31 O    0.886
    34   8 O    1.206 --    35 Cl   1.184
    35  17 Cl   1.194 --    34 O    1.184
    36   1 H    0.906 --    37 O    0.886
    37   8 O    1.816 --    39 H    0.919    36 H    0.886
    38  17 Cl   0.000
    39   1 H    0.921 --    37 O    0.919
    40   8 O    1.751 --    42 H    0.908    41 Cl   0.807
    41  17 Cl   0.891 --    40 O    0.807
    42   1 H    0.911 --    40 O    0.908
    43   6 C    3.787 --    44 C    1.363    48 C    1.316    60 Cl   0.943
    44   6 C    3.919 --    45 C    1.443    43 C    1.363    49 H    0.957
    45   6 C    3.901 --    44 C    1.443    46 C    1.313    50 H    0.954
    46   6 C    3.912 --    47 C    1.353    45 C    1.313    62 N    1.100
    47   6 C    3.926 --    48 C    1.415    46 C    1.353    69 H    0.955
    48   6 C    3.854 --    47 C    1.415    43 C    1.316    70 Cl   0.980
    49   1 H    0.987 --    44 C    0.957
    50   1 H    0.982 --    45 C    0.954
    51   6 C    3.907 --    52 C    1.369    53 C    1.364    66 N    1.023
    52   6 C    3.943 --    54 C    1.467    51 C    1.369    55 H    0.958
    53   6 C    3.921 --    56 C    1.411    51 C    1.364    68 H    0.948
                            54 C    0.105
    54   6 C    3.917 --    52 C    1.467    57 C    1.302    58 H    0.965
                            53 C    0.105
    55   1 H    0.989 --    52 C    0.958
    56   6 C    3.947 --    57 C    1.431    53 C    1.411    59 H    0.960
    57   6 C    3.848 --    56 C    1.431    54 C    1.302    61 Cl   0.995
    58   1 H    0.992 --    54 C    0.965
    59   1 H    0.991 --    56 C    0.960
    60  17 Cl   1.045 --    43 C    0.943
    61  17 Cl   1.120 --    57 C    0.995
    62   7 N    3.298 --    46 C    1.100    64 C    0.979    63 H    0.932
                            65 O    0.130
    63   1 H    0.969 --    62 N    0.932
    64   6 C    3.944 --    65 O    1.775    66 N    1.129    62 N    0.979
    65   8 O    2.123 --    64 C    1.775    66 N    0.150    62 N    0.130
    66   7 N    3.328 --    64 C    1.129    51 C    1.023    67 H    0.896
                            65 O    0.150
    67   1 H    0.953 --    66 N    0.896
    68   1 H    0.990 --    53 C    0.948
    69   1 H    0.992 --    47 C    0.955
    70  17 Cl   1.102 --    48 C    0.980
 ---------------------------------------------------------------------------

Topologies differ in total number of bonds
Writing topology from bond orders to xtbtopo.mol

molecular dipole:
                 x           y           z       tot (Debye)
 q only:       -0.676      -4.230      -2.521
   full:       -0.239      -4.573      -2.634      13.428
molecular quadrupole (traceless):
                xx          xy          yy          xz          yz          zz
 q only:       28.144      -0.448      43.614      35.274     -22.618     -71.758
  q+dip:       22.390       3.890      46.113      34.630     -23.058     -68.503
   full:       23.791       4.638      43.898      34.499     -20.613     -67.689


           -------------------------------------------------
          | TOTAL ENERGY             -142.884571012727 Eh   |
          | GRADIENT NORM               0.297199972112 Eh/α |
          | HOMO-LUMO GAP               0.039210310938 eV   |
           -------------------------------------------------

------------------------------------------------------------------------
 * finished run on 2025/04/07 at 09:40:50.310     
------------------------------------------------------------------------
 total:
 * wall-time:     0 d,  0 h,  0 min,  0.254 sec
 *  cpu-time:     0 d,  0 h,  0 min,  1.547 sec
 * ratio c/w:     6.094 speedup
 SCF:
 * wall-time:     0 d,  0 h,  0 min,  0.179 sec
 *  cpu-time:     0 d,  0 h,  0 min,  1.404 sec
 * ratio c/w:     7.846 speedup

