      -----------------------------------------------------------      
     |                   =====================                   |     
     |                           x T B                           |     
     |                   =====================                   |     
     |                         S. Grimme                         |     
     |          Mulliken Center for Theoretical Chemistry        |     
     |                    University of Bonn                     |     
      -----------------------------------------------------------      

   * xtb version 6.6.1 (8d0f1dd) compiled by 'stahn@M-Bot' on 2023-08-01

   xtb is free software: you can redistribute it and/or modify it under
   the terms of the GNU Lesser General Public License as published by
   the Free Software Foundation, either version 3 of the License, or
   (at your option) any later version.
   
   xtb is distributed in the hope that it will be useful,
   but WITHOUT ANY WARRANTY; without even the implied warranty of
   MERCHANTABILITY or FITNESS FOR A PARTICULAR PURPOSE.  See the
   GNU Lesser General Public License for more details.
   
   Cite this work as:
   * C. Bannwarth, E. Caldeweyher, S. Ehlert, A. Hansen, P. Pracht,
     J. Seibert, S. Spicher, S. Grimme, WIREs Comput. Mol. Sci., 2020, 11,
     e01493. DOI: 10.1002/wcms.1493
   
   for GFN2-xTB:
   * C. Bannwarth, S. Ehlert and S. Grimme., J. Chem. Theory Comput., 2019,
     15, 1652-1671. DOI: 10.1021/acs.jctc.8b01176
   for GFN1-xTB:
   * S. Grimme, C. Bannwarth, P. Shushkov, J. Chem. Theory Comput., 2017,
     13, 1989-2009. DOI: 10.1021/acs.jctc.7b00118
   for GFN0-xTB:
   * P. Pracht, E. Caldeweyher, S. Ehlert, S. Grimme, ChemRxiv, 2019, preprint.
     DOI: 10.26434/chemrxiv.8326202.v1
   for GFN-FF:
   * S. Spicher and S. Grimme, Angew. Chem. Int. Ed., 2020, 59, 15665-15673.
     DOI: 10.1002/anie.202004239
   
   for ALPB and GBSA implicit solvation:
   * S. Ehlert, M. Stahn, S. Spicher, S. Grimme, J. Chem. Theory Comput.,
     2021, 17, 4250-4261. DOI: 10.1021/acs.jctc.1c00471
   
   for DFT-D4:
   * E. Caldeweyher, C. Bannwarth and S. Grimme, J. Chem. Phys., 2017,
     147, 034112. DOI: 10.1063/1.4993215
   * E. Caldeweyher, S. Ehlert, A. Hansen, H. Neugebauer, S. Spicher,
     C. Bannwarth and S. Grimme, J. Chem. Phys., 2019, 150, 154122.
     DOI: 10.1063/1.5090222
   * E. Caldeweyher, J.-M. Mewes, S. Ehlert and S. Grimme, Phys. Chem. Chem. Phys.
     2020, 22, 8499-8512. DOI: 10.1039/D0CP00502A
   
   for sTDA-xTB:
   * S. Grimme and C. Bannwarth, J. Chem. Phys., 2016, 145, 054103.
     DOI: 10.1063/1.4959605
   
   in the mass-spec context:
   * V. Asgeirsson, C. Bauer and S. Grimme, Chem. Sci., 2017, 8, 4879.
     DOI: 10.1039/c7sc00601b
   * J. Koopman and S. Grimme, ACS Omega 2019, 4, 12, 15120-15133.
     DOI: 10.1021/acsomega.9b02011
   
   for metadynamics refer to:
   * S. Grimme, J. Chem. Theory Comput., 2019, 155, 2847-2862
     DOI: 10.1021/acs.jctc.9b00143
   
   for SPH calculations refer to:
   * S. Spicher and S. Grimme, J. Chem. Theory Comput., 2021, 17, 1701-1714
     DOI: 10.1021/acs.jctc.0c01306
   
   with help from (in alphabetical order)
   P. Atkinson, C. Bannwarth, F. Bohle, G. Brandenburg, E. Caldeweyher
   M. Checinski, S. Dohm, S. Ehlert, S. Ehrlich, I. Gerasimov, C. Hölzer
   A. Katbashev, J. Koopman, C. Lavigne, S. Lehtola, F. März, M. Müller,
   F. Musil, H. Neugebauer, J. Pisarek, C. Plett, P. Pracht, F. Pultar,
   J. Seibert, P. Shushkov, S. Spicher, M. Stahn, M. Steiner, T. Strunk,
   J. Stückrath, T. Rose, and J. Unsleber
   
 * started run on 2025/04/07 at 09:40:50.324     

           -------------------------------------------------
          |                Calculation Setup                |
           -------------------------------------------------

          program call               : xtb 549.xyz --input 549.inp
          hostname                   : serv11
          coordinate file            : 549.xyz
          omp threads                :                     8

   ID    Z sym.   atoms
    1    8 O      1, 4, 7, 10, 13, 16, 19, 22, 25, 28, 31, 34, 37, 40, 65
    2    1 H      2, 3, 5, 6, 8, 9, 11, 12, 14, 15, 17, 18, 20, 21, 23, 24,
                  26, 27, 29, 30, 33, 36, 39, 42, 49, 50, 55, 58, 59, 63,
                  67-69
    3   17 Cl     32, 35, 38, 41, 60, 61, 70
    4    6 C      43-48, 51-54, 56, 57, 64
    5    7 N      62, 66

molecular fragmentation (1/2 indicates fragments):
1112222222222222222222222222222222222222222222222222222222222222222222
# atoms in fragment 1/2:     3    67
 fragment masses (1/2) :       18.02      687.56
CMA distance (Bohr)    :  12.428
constraining FC (au)   :  0.0500

           -------------------------------------------------
          |                 G F N 2 - x T B                 |
           -------------------------------------------------

        Reference                      10.1021/acs.jctc.8b01176
      * Hamiltonian:
        H0-scaling (s, p, d)           1.850000    2.230000    2.230000
        zeta-weighting                 0.500000
      * Dispersion:
        s8                             2.700000
        a1                             0.520000
        a2                             5.000000
        s9                             5.000000
      * Repulsion:
        kExp                           1.500000    1.000000
        rExp                           1.000000
      * Coulomb:
        alpha                          2.000000
        third order                    shell-resolved
        anisotropic                    true
        a3                             3.000000
        a5                             4.000000
        cn-shift                       1.200000
        cn-exp                         4.000000
        max-rad                        5.000000

q/qsh data taken from xtbrestart
CAMM data taken from xtbrestart

          ...................................................
          :                      SETUP                      :
          :.................................................:
          :  # basis functions                 223          :
          :  # atomic orbitals                 216          :
          :  # shells                          114          :
          :  # electrons                       234          :
          :  max. iterations                   800          :
          :  Hamiltonian                  GFN2-xTB          :
          :  restarted?                       true          :
          :  GBSA solvation                  false          :
          :  PC potential                    false          :
          :  electronic temp.         6000.0000000     K    :
          :  accuracy                    1.0000000          :
          :  -> integral cutoff          0.2500000E+02      :
          :  -> integral neglect         0.1000000E-07      :
          :  -> SCF convergence          0.1000000E-05 Eh   :
          :  -> wf. convergence          0.1000000E-03 e    :
          :  Broyden damping             0.4000000          :
          ...................................................

 iter      E             dE          RMSdq      gap      omega  full diag
   1   -143.8670862 -0.143867E+03  0.311E+00    0.04       0.0  T
   2   -143.8993272 -0.322410E-01  0.190E+00    0.04       1.0  T
   3   -143.7729849  0.126342E+00  0.115E+00    0.24       1.0  T
   4   -143.8385302 -0.655453E-01  0.795E-01    0.04       1.0  T
   5   -143.9133036 -0.747734E-01  0.325E-01    0.03       1.0  T
   6   -143.9137021 -0.398481E-03  0.280E-01    0.03       1.0  T
   7   -143.9175027 -0.380065E-02  0.193E-01    0.04       1.0  T
   8   -143.9190193 -0.151659E-02  0.119E-01    0.04       1.0  T
   9   -143.9194375 -0.418212E-03  0.778E-02    0.04       1.0  T
  10   -143.9195600 -0.122456E-03  0.586E-02    0.04       1.0  T
  11   -143.9196829 -0.122910E-03  0.316E-02    0.04       1.0  T
  12   -143.9197219 -0.390598E-04  0.201E-02    0.04       1.0  T
  13   -143.9197349 -0.129526E-04  0.145E-02    0.04       1.0  T
  14   -143.9197407 -0.579295E-05  0.978E-03    0.04       1.2  T
  15   -143.9197450 -0.431896E-05  0.545E-03    0.04       2.2  T
  16   -143.9197459 -0.916371E-06  0.352E-03    0.04       3.4  T
  17   -143.9197465 -0.533286E-06  0.209E-03    0.04       5.7  T
  18   -143.9197466 -0.102626E-06  0.163E-03    0.04       7.3  T
  19   -143.9197466 -0.858806E-07  0.112E-03    0.04      10.6  T
  20   -143.9197467 -0.655133E-07  0.576E-04    0.04      20.7  T
  21   -143.9197467 -0.141465E-07  0.340E-04    0.04      35.2  T

   *** convergence criteria satisfied after 21 iterations ***

         #    Occupation            Energy/Eh            Energy/eV
      -------------------------------------------------------------
         1        2.0000           -1.0848694             -29.5208
       ...           ...                  ...                  ...
       111        1.9411           -0.4178334             -11.3698
       112        1.9043           -0.4082418             -11.1088
       113        1.8477           -0.3988361             -10.8529
       114        1.7441           -0.3878811             -10.5548
       115        1.7427           -0.3877598             -10.5515
       116        1.7389           -0.3874441             -10.5429
       117        1.6460           -0.3806129             -10.3570 (HOMO)
       118        1.6253           -0.3792910             -10.3210 (LUMO)
       119        0.1179           -0.2987702              -8.1300
       120        0.0538           -0.2832417              -7.7074
       121        0.0392           -0.2770555              -7.5391
       122        0.0260           -0.2691710              -7.3245
       ...           ...                  ...                  ...
       216                          0.6450585              17.5529
      -------------------------------------------------------------
                  HL-Gap            0.0013219 Eh            0.0360 eV
             Fermi-level           -0.3514129 Eh           -9.5624 eV

 SCC (total)                   0 d,  0 h,  0 min,  0.172 sec
 SCC setup                      ...        0 min,  0.000 sec (  0.199%)
 Dispersion                     ...        0 min,  0.001 sec (  0.438%)
 classical contributions        ...        0 min,  0.000 sec (  0.048%)
 integral evaluation            ...        0 min,  0.036 sec ( 21.137%)
 iterations                     ...        0 min,  0.123 sec ( 71.312%)
 molecular gradient             ...        0 min,  0.011 sec (  6.565%)
 printout                       ...        0 min,  0.000 sec (  0.257%)

         :::::::::::::::::::::::::::::::::::::::::::::::::::::
         ::                     SUMMARY                     ::
         :::::::::::::::::::::::::::::::::::::::::::::::::::::
         :: total energy            -142.901752804079 Eh    ::
         :: gradient norm              0.291866536963 Eh/a0 ::
         :: HOMO-LUMO gap              0.035969451838 eV    ::
         ::.................................................::
         :: SCC energy              -143.919746725292 Eh    ::
         :: -> isotropic ES            0.470949762955 Eh    ::
         :: -> anisotropic ES         -0.023573253204 Eh    ::
         :: -> anisotropic XC          0.000226524267 Eh    ::
         :: -> dispersion             -0.060019195008 Eh    ::
         :: repulsion energy           1.016248367980 Eh    ::
         :: add. restraining           0.000000000000 Eh    ::
         :: total charge              -0.000000000000 e     ::
         :::::::::::::::::::::::::::::::::::::::::::::::::::::

           -------------------------------------------------
          |                Property Printout                |
           -------------------------------------------------

    * Orbital Energies and Occupations

         #    Occupation            Energy/Eh            Energy/eV
      -------------------------------------------------------------
         1        2.0000           -1.0848694             -29.5208
       ...           ...                  ...                  ...
       105        1.9758           -0.4350780             -11.8391
       106        1.9729           -0.4328559             -11.7786
       107        1.9701           -0.4309833             -11.7277
       108        1.9574           -0.4241319             -11.5412
       109        1.9550           -0.4230842             -11.5127
       110        1.9449           -0.4191333             -11.4052
       111        1.9411           -0.4178334             -11.3698
       112        1.9043           -0.4082418             -11.1088
       113        1.8477           -0.3988361             -10.8529
       114        1.7441           -0.3878811             -10.5548
       115        1.7427           -0.3877598             -10.5515
       116        1.7389           -0.3874441             -10.5429
       117        1.6460           -0.3806129             -10.3570 (HOMO)
       118        1.6253           -0.3792910             -10.3210 (LUMO)
       119        0.1179           -0.2987702              -8.1300
       120        0.0538           -0.2832417              -7.7074
       121        0.0392           -0.2770555              -7.5391
       122        0.0260           -0.2691710              -7.3245
       123        0.0254           -0.2686765              -7.3111
       124        0.0153           -0.2589342              -7.0460
       125        0.0020           -0.2197516              -5.9797
       126        0.0004           -0.1915968              -5.2136
       127        0.0003           -0.1843691              -5.0169
       128        0.0001           -0.1672541              -4.5512
       ...           ...                  ...                  ...
       216                          0.6450585              17.5529
      -------------------------------------------------------------
                  HL-Gap            0.0013219 Eh            0.0360 eV
             Fermi-level           -0.3514129 Eh           -9.5624 eV

     #   Z          covCN         q      C6AA      α(0)
     1   8 O        1.594    -0.565    24.375     6.663
     2   1 H        0.799     0.294     0.740     1.352
     3   1 H        0.795     0.287     0.765     1.375
     4   8 O        1.611    -0.581    24.731     6.712
     5   1 H        0.807     0.294     0.739     1.350
     6   1 H        0.804     0.290     0.752     1.362
     7   8 O        1.606    -0.568    24.435     6.671
     8   1 H        0.801     0.288     0.758     1.368
     9   1 H        0.804     0.295     0.738     1.349
    10   8 O        1.605    -0.559    24.235     6.644
    11   1 H        0.799     0.280     0.786     1.393
    12   1 H        0.806     0.296     0.733     1.344
    13   8 O        1.594    -0.583    24.800     6.721
    14   1 H        0.802     0.305     0.708     1.322
    15   1 H        0.792     0.309     0.698     1.314
    16   8 O        1.615    -0.591    24.974     6.745
    17   1 H        0.807     0.309     0.695     1.309
    18   1 H        0.808     0.310     0.692     1.306
    19   8 O        1.607    -0.564    24.348     6.660
    20   1 H        0.804     0.280     0.785     1.392
    21   1 H        0.803     0.286     0.764     1.373
    22   8 O        1.610    -0.567    24.415     6.669
    23   1 H        0.805     0.283     0.773     1.381
    24   1 H        0.805     0.288     0.758     1.367
    25   8 O        1.604    -0.576    24.633     6.698
    26   1 H        0.802     0.290     0.752     1.363
    27   1 H        0.801     0.291     0.749     1.360
    28   8 O        1.599    -0.558    24.216     6.641
    29   1 H        0.796     0.288     0.761     1.371
    30   1 H        0.803     0.279     0.789     1.395
    31   8 O        1.727    -0.386    20.547     6.120
    32  17 Cl       0.940     0.037    98.084    15.151
    33   1 H        0.817     0.326     0.646     1.262
    34   8 O        0.938    -0.423    22.111     6.306
    35  17 Cl       0.938     0.162    94.452    14.868
    36   1 H        0.370     0.274     1.672     2.319
    37   8 O        1.177    -0.523    24.077     6.589
    38  17 Cl       0.000    -0.226    99.356    15.170
    39   1 H        0.808     0.304     0.710     1.323
    40   8 O        1.684    -0.406    20.962     6.181
    41  17 Cl       0.884     0.050    97.680    15.120
    42   1 H        0.809     0.317     0.671     1.287
    43   6 C        2.894     0.084    26.121     8.380
    44   6 C        3.036    -0.041    28.983     8.830
    45   6 C        2.959    -0.038    28.931     8.822
    46   6 C        2.922     0.096    25.874     8.342
    47   6 C        2.965    -0.069    29.717     8.942
    48   6 C        2.871     0.076    26.306     8.408
    49   1 H        0.926     0.112     1.679     2.026
    50   1 H        0.925     0.110     1.696     2.036
    51   6 C        2.883     0.086    26.092     8.374
    52   6 C        2.924    -0.041    29.027     8.835
    53   6 C        2.925    -0.040    29.006     8.832
    54   6 C        2.940    -0.040    29.002     8.832
    55   1 H        0.923     0.067     2.114     2.274
    56   6 C        2.964    -0.040    28.989     8.831
    57   6 C        2.873     0.092    25.954     8.351
    58   1 H        0.927     0.074     2.038     2.232
    59   1 H        0.925     0.061     2.182     2.310
    60  17 Cl       1.019    -0.077   101.556    15.418
    61  17 Cl       0.952    -0.132   103.268    15.547
    62   7 N        2.748    -0.135    23.927     7.265
    63   1 H        0.859     0.192     1.147     1.678
    64   6 C        2.683     0.327    21.443     7.578
    65   8 O        0.857    -0.413    21.941     6.280
    66   7 N        2.706    -0.180    24.897     7.411
    67   1 H        0.859     0.195     1.132     1.666
    68   1 H        0.926     0.061     2.192     2.315
    69   1 H        0.925     0.081     1.966     2.192
    70  17 Cl       0.905    -0.102   102.313    15.475

 Mol. C6AA /au·bohr⁶  :      63888.246777
 Mol. C8AA /au·bohr⁸  :    1693639.255770
 Mol. α(0) /au        :        383.150540


Wiberg/Mayer (AO) data.
largest (>0.10) Wiberg bond orders for each atom

 ---------------------------------------------------------------------------
     #   Z sym  total        # sym  WBO       # sym  WBO       # sym  WBO
 ---------------------------------------------------------------------------
     1   8 O    1.824 --     3 H    0.915     2 H    0.899
     2   1 H    0.913 --     1 O    0.899
     3   1 H    0.918 --     1 O    0.915
     4   8 O    1.828 --     6 H    0.914     5 H    0.913
     5   1 H    0.913 --     4 O    0.913
     6   1 H    0.916 --     4 O    0.914
     7   8 O    1.832 --     8 H    0.915     9 H    0.911
     8   1 H    0.917 --     7 O    0.915
     9   1 H    0.913 --     7 O    0.911
    10   8 O    1.832 --    11 H    0.913    12 H    0.911
    11   1 H    0.922 --    10 O    0.913
    12   1 H    0.912 --    10 O    0.911
    13   8 O    1.794 --    14 H    0.902    15 H    0.878
    14   1 H    0.907 --    13 O    0.902
    15   1 H    0.904 --    13 O    0.878
    16   8 O    1.827 --    18 H    0.891    17 H    0.888
    17   1 H    0.904 --    16 O    0.888
    18   1 H    0.904 --    16 O    0.891
    19   8 O    1.833 --    21 H    0.917    20 H    0.911
    20   1 H    0.922 --    19 O    0.911
    21   1 H    0.918 --    19 O    0.917
    22   8 O    1.836 --    23 H    0.917    24 H    0.916
    23   1 H    0.920 --    22 O    0.917
    24   1 H    0.917 --    22 O    0.916
    25   8 O    1.827 --    26 H    0.914    27 H    0.908
    26   1 H    0.916 --    25 O    0.914
    27   1 H    0.915 --    25 O    0.908
    28   8 O    1.830 --    30 H    0.917    29 H    0.911
    29   1 H    0.917 --    28 O    0.911
    30   1 H    0.922 --    28 O    0.917
    31   8 O    1.897 --    32 Cl   0.993    33 H    0.883
    32  17 Cl   1.021 --    31 O    0.993
    33   1 H    0.893 --    31 O    0.883
    34   8 O    1.192 --    35 Cl   1.183
    35  17 Cl   1.198 --    34 O    1.183
    36   1 H    0.924 --    37 O    0.914
    37   8 O    1.822 --    36 H    0.914    39 H    0.900
    38  17 Cl   0.000
    39   1 H    0.907 --    37 O    0.900
    40   8 O    1.815 --    41 Cl   0.916    42 H    0.897
    41  17 Cl   0.928 --    40 O    0.916
    42   1 H    0.899 --    40 O    0.897
    43   6 C    3.852 --    44 C    1.350    48 C    1.324    60 Cl   1.024
    44   6 C    3.926 --    45 C    1.440    43 C    1.350    49 H    0.956
    45   6 C    3.931 --    44 C    1.440    46 C    1.365    50 H    0.950
    46   6 C    3.926 --    45 C    1.365    47 C    1.319    62 N    1.104
    47   6 C    3.923 --    48 C    1.412    46 C    1.319    69 H    0.957
    48   6 C    3.879 --    47 C    1.412    43 C    1.324    70 Cl   0.976
    49   1 H    0.984 --    44 C    0.956
    50   1 H    0.983 --    45 C    0.950
    51   6 C    3.918 --    52 C    1.370    53 C    1.322    66 N    1.091
    52   6 C    3.916 --    54 C    1.379    51 C    1.370    55 H    0.963
    53   6 C    3.946 --    56 C    1.496    51 C    1.322    68 H    0.959
    54   6 C    3.945 --    57 C    1.434    52 C    1.379    58 H    0.964
    55   1 H    0.992 --    52 C    0.963
    56   6 C    3.944 --    53 C    1.496    57 C    1.320    59 H    0.966
    57   6 C    3.863 --    54 C    1.434    56 C    1.320    61 Cl   0.989
    58   1 H    0.992 --    54 C    0.964
    59   1 H    0.994 --    56 C    0.966
    60  17 Cl   1.174 --    43 C    1.024
    61  17 Cl   1.114 --    57 C    0.989
    62   7 N    3.443 --    64 C    1.153    46 C    1.104    63 H    0.912
                            65 O    0.129
    63   1 H    0.962 --    62 N    0.912
    64   6 C    3.939 --    65 O    1.639    62 N    1.153    66 N    1.082
    65   8 O    1.959 --    64 C    1.639    62 N    0.129    66 N    0.122
    66   7 N    3.374 --    51 C    1.091    64 C    1.082    67 H    0.920
                            65 O    0.122
    67   1 H    0.961 --    66 N    0.920
    68   1 H    0.994 --    53 C    0.959
    69   1 H    0.991 --    47 C    0.957
    70  17 Cl   1.096 --    48 C    0.976
 ---------------------------------------------------------------------------

Topologies differ in total number of bonds
Writing topology from bond orders to xtbtopo.mol

molecular dipole:
                 x           y           z       tot (Debye)
 q only:        0.550      -2.706      -2.355
   full:        0.032      -3.377      -2.321      10.414
molecular quadrupole (traceless):
                xx          xy          yy          xz          yz          zz
 q only:       47.585      -6.543      32.988      31.927     -26.378     -80.573
  q+dip:       52.055     -10.481      37.232      30.275     -34.727     -89.286
   full:       52.180      -8.582      35.466      31.979     -34.168     -87.646


           -------------------------------------------------
          | TOTAL ENERGY             -142.901752804079 Eh   |
          | GRADIENT NORM               0.291866536963 Eh/α |
          | HOMO-LUMO GAP               0.035969451838 eV   |
           -------------------------------------------------

------------------------------------------------------------------------
 * finished run on 2025/04/07 at 09:40:50.563     
------------------------------------------------------------------------
 total:
 * wall-time:     0 d,  0 h,  0 min,  0.238 sec
 *  cpu-time:     0 d,  0 h,  0 min,  1.483 sec
 * ratio c/w:     6.226 speedup
 SCF:
 * wall-time:     0 d,  0 h,  0 min,  0.173 sec
 *  cpu-time:     0 d,  0 h,  0 min,  1.352 sec
 * ratio c/w:     7.831 speedup

