      -----------------------------------------------------------      
     |                   =====================                   |     
     |                           x T B                           |     
     |                   =====================                   |     
     |                         S. Grimme                         |     
     |          Mulliken Center for Theoretical Chemistry        |     
     |                    University of Bonn                     |     
      -----------------------------------------------------------      

   * xtb version 6.6.1 (8d0f1dd) compiled by 'stahn@M-Bot' on 2023-08-01

   xtb is free software: you can redistribute it and/or modify it under
   the terms of the GNU Lesser General Public License as published by
   the Free Software Foundation, either version 3 of the License, or
   (at your option) any later version.
   
   xtb is distributed in the hope that it will be useful,
   but WITHOUT ANY WARRANTY; without even the implied warranty of
   MERCHANTABILITY or FITNESS FOR A PARTICULAR PURPOSE.  See the
   GNU Lesser General Public License for more details.
   
   Cite this work as:
   * C. Bannwarth, E. Caldeweyher, S. Ehlert, A. Hansen, P. Pracht,
     J. Seibert, S. Spicher, S. Grimme, WIREs Comput. Mol. Sci., 2020, 11,
     e01493. DOI: 10.1002/wcms.1493
   
   for GFN2-xTB:
   * C. Bannwarth, S. Ehlert and S. Grimme., J. Chem. Theory Comput., 2019,
     15, 1652-1671. DOI: 10.1021/acs.jctc.8b01176
   for GFN1-xTB:
   * S. Grimme, C. Bannwarth, P. Shushkov, J. Chem. Theory Comput., 2017,
     13, 1989-2009. DOI: 10.1021/acs.jctc.7b00118
   for GFN0-xTB:
   * P. Pracht, E. Caldeweyher, S. Ehlert, S. Grimme, ChemRxiv, 2019, preprint.
     DOI: 10.26434/chemrxiv.8326202.v1
   for GFN-FF:
   * S. Spicher and S. Grimme, Angew. Chem. Int. Ed., 2020, 59, 15665-15673.
     DOI: 10.1002/anie.202004239
   
   for ALPB and GBSA implicit solvation:
   * S. Ehlert, M. Stahn, S. Spicher, S. Grimme, J. Chem. Theory Comput.,
     2021, 17, 4250-4261. DOI: 10.1021/acs.jctc.1c00471
   
   for DFT-D4:
   * E. Caldeweyher, C. Bannwarth and S. Grimme, J. Chem. Phys., 2017,
     147, 034112. DOI: 10.1063/1.4993215
   * E. Caldeweyher, S. Ehlert, A. Hansen, H. Neugebauer, S. Spicher,
     C. Bannwarth and S. Grimme, J. Chem. Phys., 2019, 150, 154122.
     DOI: 10.1063/1.5090222
   * E. Caldeweyher, J.-M. Mewes, S. Ehlert and S. Grimme, Phys. Chem. Chem. Phys.
     2020, 22, 8499-8512. DOI: 10.1039/D0CP00502A
   
   for sTDA-xTB:
   * S. Grimme and C. Bannwarth, J. Chem. Phys., 2016, 145, 054103.
     DOI: 10.1063/1.4959605
   
   in the mass-spec context:
   * V. Asgeirsson, C. Bauer and S. Grimme, Chem. Sci., 2017, 8, 4879.
     DOI: 10.1039/c7sc00601b
   * J. Koopman and S. Grimme, ACS Omega 2019, 4, 12, 15120-15133.
     DOI: 10.1021/acsomega.9b02011
   
   for metadynamics refer to:
   * S. Grimme, J. Chem. Theory Comput., 2019, 155, 2847-2862
     DOI: 10.1021/acs.jctc.9b00143
   
   for SPH calculations refer to:
   * S. Spicher and S. Grimme, J. Chem. Theory Comput., 2021, 17, 1701-1714
     DOI: 10.1021/acs.jctc.0c01306
   
   with help from (in alphabetical order)
   P. Atkinson, C. Bannwarth, F. Bohle, G. Brandenburg, E. Caldeweyher
   M. Checinski, S. Dohm, S. Ehlert, S. Ehrlich, I. Gerasimov, C. Hölzer
   A. Katbashev, J. Koopman, C. Lavigne, S. Lehtola, F. März, M. Müller,
   F. Musil, H. Neugebauer, J. Pisarek, C. Plett, P. Pracht, F. Pultar,
   J. Seibert, P. Shushkov, S. Spicher, M. Stahn, M. Steiner, T. Strunk,
   J. Stückrath, T. Rose, and J. Unsleber
   
 * started run on 2025/04/07 at 09:40:52.745     

           -------------------------------------------------
          |                Calculation Setup                |
           -------------------------------------------------

          program call               : xtb 557.xyz --input 557.inp
          hostname                   : serv11
          coordinate file            : 557.xyz
          omp threads                :                     8

   ID    Z sym.   atoms
    1    8 O      1, 4, 7, 10, 13, 16, 19, 22, 25, 28, 31, 34, 37, 40, 65
    2    1 H      2, 3, 5, 6, 8, 9, 11, 12, 14, 15, 17, 18, 20, 21, 23, 24,
                  26, 27, 29, 30, 33, 36, 39, 42, 49, 50, 55, 58, 59, 63,
                  67-69
    3   17 Cl     32, 35, 38, 41, 60, 61, 70
    4    6 C      43-48, 51-54, 56, 57, 64
    5    7 N      62, 66

molecular fragmentation (1/2 indicates fragments):
1112222222222222222222222222222222222222222222222222222222222222222222
# atoms in fragment 1/2:     3    67
 fragment masses (1/2) :       18.02      687.56
CMA distance (Bohr)    :  13.405
constraining FC (au)   :  0.0500

           -------------------------------------------------
          |                 G F N 2 - x T B                 |
           -------------------------------------------------

        Reference                      10.1021/acs.jctc.8b01176
      * Hamiltonian:
        H0-scaling (s, p, d)           1.850000    2.230000    2.230000
        zeta-weighting                 0.500000
      * Dispersion:
        s8                             2.700000
        a1                             0.520000
        a2                             5.000000
        s9                             5.000000
      * Repulsion:
        kExp                           1.500000    1.000000
        rExp                           1.000000
      * Coulomb:
        alpha                          2.000000
        third order                    shell-resolved
        anisotropic                    true
        a3                             3.000000
        a5                             4.000000
        cn-shift                       1.200000
        cn-exp                         4.000000
        max-rad                        5.000000

q/qsh data taken from xtbrestart
CAMM data taken from xtbrestart

          ...................................................
          :                      SETUP                      :
          :.................................................:
          :  # basis functions                 223          :
          :  # atomic orbitals                 216          :
          :  # shells                          114          :
          :  # electrons                       234          :
          :  max. iterations                   800          :
          :  Hamiltonian                  GFN2-xTB          :
          :  restarted?                       true          :
          :  GBSA solvation                  false          :
          :  PC potential                    false          :
          :  electronic temp.         6000.0000000     K    :
          :  accuracy                    1.0000000          :
          :  -> integral cutoff          0.2500000E+02      :
          :  -> integral neglect         0.1000000E-07      :
          :  -> SCF convergence          0.1000000E-05 Eh   :
          :  -> wf. convergence          0.1000000E-03 e    :
          :  Broyden damping             0.4000000          :
          ...................................................

 iter      E             dE          RMSdq      gap      omega  full diag
   1   -143.7089507 -0.143709E+03  0.438E+00    0.01       0.0  T
   2   -143.6092735  0.996772E-01  0.317E+00    0.02       1.0  T
   3   -143.7847474 -0.175474E+00  0.218E+00    0.03       1.0  T
   4   -143.8918130 -0.107066E+00  0.903E-01    0.02       1.0  T
   5   -143.9271714 -0.353584E-01  0.362E-01    0.03       1.0  T
   6   -143.9304416 -0.327023E-02  0.316E-01    0.00       1.0  T
   7   -143.9370669 -0.662532E-02  0.190E-01    0.03       1.0  T
   8   -143.9378313 -0.764337E-03  0.166E-01    0.03       1.0  T
   9   -143.9394893 -0.165799E-02  0.912E-02    0.03       1.0  T
  10   -143.9397879 -0.298611E-03  0.624E-02    0.03       1.0  T
  11   -143.9398249 -0.370071E-04  0.536E-02    0.03       1.0  T
  12   -143.9400641 -0.239194E-03  0.295E-02    0.03       1.0  T
  13   -143.9400678 -0.369948E-05  0.258E-02    0.03       1.0  T
  14   -143.9401219 -0.541273E-04  0.138E-02    0.03       1.0  T
  15   -143.9401296 -0.770539E-05  0.825E-03    0.03       1.4  T
  16   -143.9401329 -0.332630E-05  0.435E-03    0.03       2.7  T
  17   -143.9401341 -0.112217E-05  0.245E-03    0.03       4.9  T
  18   -143.9401344 -0.322975E-06  0.127E-03    0.03       9.4  T
  19   -143.9401344 -0.575727E-07  0.839E-04    0.03      14.3  T
  20   -143.9401344  0.204482E-07  0.862E-04    0.03      13.9  T

   *** convergence criteria satisfied after 20 iterations ***

         #    Occupation            Energy/Eh            Energy/eV
      -------------------------------------------------------------
         1        2.0000           -1.0896338             -29.6504
       ...           ...                  ...                  ...
       111        1.9096           -0.4031785             -10.9710
       112        1.8956           -0.4003122             -10.8930
       113        1.8679           -0.3955641             -10.7638
       114        1.7663           -0.3836517             -10.4397
       115        1.7622           -0.3832841             -10.4297
       116        1.7567           -0.3827894             -10.4162
       117        1.6547           -0.3749943             -10.2041 (HOMO)
       118        1.6396           -0.3740081             -10.1773 (LUMO)
       119        0.0411           -0.2718081              -7.3963
       120        0.0319           -0.2669259              -7.2634
       121        0.0276           -0.2640914              -7.1863
       122        0.0215           -0.2592644              -7.0549
       ...           ...                  ...                  ...
       216                          0.6015812              16.3699
      -------------------------------------------------------------
                  HL-Gap            0.0009862 Eh            0.0268 eV
             Fermi-level           -0.3452232 Eh           -9.3940 eV

 SCC (total)                   0 d,  0 h,  0 min,  0.171 sec
 SCC setup                      ...        0 min,  0.000 sec (  0.183%)
 Dispersion                     ...        0 min,  0.001 sec (  0.391%)
 classical contributions        ...        0 min,  0.000 sec (  0.055%)
 integral evaluation            ...        0 min,  0.036 sec ( 21.141%)
 iterations                     ...        0 min,  0.122 sec ( 71.320%)
 molecular gradient             ...        0 min,  0.011 sec (  6.627%)
 printout                       ...        0 min,  0.000 sec (  0.244%)

         :::::::::::::::::::::::::::::::::::::::::::::::::::::
         ::                     SUMMARY                     ::
         :::::::::::::::::::::::::::::::::::::::::::::::::::::
         :: total energy            -142.898441860113 Eh    ::
         :: gradient norm              0.319801892221 Eh/a0 ::
         :: HOMO-LUMO gap              0.026836050143 eV    ::
         ::.................................................::
         :: SCC energy              -143.940134421318 Eh    ::
         :: -> isotropic ES            0.469027249123 Eh    ::
         :: -> anisotropic ES         -0.015706412757 Eh    ::
         :: -> anisotropic XC         -0.005857423524 Eh    ::
         :: -> dispersion             -0.058116856041 Eh    ::
         :: repulsion energy           1.040155259383 Eh    ::
         :: add. restraining           0.000000000000 Eh    ::
         :: total charge               0.000000000000 e     ::
         :::::::::::::::::::::::::::::::::::::::::::::::::::::

           -------------------------------------------------
          |                Property Printout                |
           -------------------------------------------------

    * Orbital Energies and Occupations

         #    Occupation            Energy/Eh            Energy/eV
      -------------------------------------------------------------
         1        2.0000           -1.0896338             -29.6504
       ...           ...                  ...                  ...
       105        1.9767           -0.4295894             -11.6897
       106        1.9758           -0.4289034             -11.6711
       107        1.9752           -0.4284262             -11.6581
       108        1.9680           -0.4234783             -11.5234
       109        1.9586           -0.4185076             -11.3882
       110        1.9556           -0.4171566             -11.3514
       111        1.9096           -0.4031785             -10.9710
       112        1.8956           -0.4003122             -10.8930
       113        1.8679           -0.3955641             -10.7638
       114        1.7663           -0.3836517             -10.4397
       115        1.7622           -0.3832841             -10.4297
       116        1.7567           -0.3827894             -10.4162
       117        1.6547           -0.3749943             -10.2041 (HOMO)
       118        1.6396           -0.3740081             -10.1773 (LUMO)
       119        0.0411           -0.2718081              -7.3963
       120        0.0319           -0.2669259              -7.2634
       121        0.0276           -0.2640914              -7.1863
       122        0.0215           -0.2592644              -7.0549
       123        0.0153           -0.2527600              -6.8780
       124        0.0102           -0.2450152              -6.6672
       125        0.0037           -0.2254496              -6.1348
       126        0.0003           -0.1783383              -4.8528
       127        0.0002           -0.1694433              -4.6108
       128        0.0002           -0.1669888              -4.5440
       ...           ...                  ...                  ...
       216                          0.6015812              16.3699
      -------------------------------------------------------------
                  HL-Gap            0.0009862 Eh            0.0268 eV
             Fermi-level           -0.3452232 Eh           -9.3940 eV

     #   Z          covCN         q      C6AA      α(0)
     1   8 O        1.602    -0.555    24.152     6.633
     2   1 H        0.802     0.284     0.772     1.381
     3   1 H        0.800     0.281     0.784     1.391
     4   8 O        1.611    -0.581    24.728     6.712
     5   1 H        0.809     0.294     0.739     1.350
     6   1 H        0.802     0.290     0.752     1.362
     7   8 O        1.588    -0.557    24.199     6.638
     8   1 H        0.806     0.292     0.745     1.356
     9   1 H        0.783     0.274     0.809     1.415
    10   8 O        1.584    -0.539    23.789     6.582
    11   1 H        0.799     0.299     0.724     1.337
    12   1 H        0.784     0.288     0.762     1.373
    13   8 O        1.608    -0.555    24.144     6.632
    14   1 H        0.807     0.294     0.740     1.351
    15   1 H        0.801     0.282     0.777     1.385
    16   8 O        1.609    -0.565    24.354     6.661
    17   1 H        0.806     0.287     0.762     1.371
    18   1 H        0.804     0.293     0.741     1.352
    19   8 O        1.611    -0.570    24.484     6.678
    20   1 H        0.804     0.284     0.770     1.378
    21   1 H        0.807     0.290     0.751     1.361
    22   8 O        1.608    -0.562    24.289     6.652
    23   1 H        0.803     0.290     0.752     1.362
    24   1 H        0.805     0.286     0.766     1.375
    25   8 O        1.612    -0.577    24.653     6.701
    26   1 H        0.806     0.289     0.754     1.364
    27   1 H        0.807     0.309     0.695     1.309
    28   8 O        1.616    -0.575    24.588     6.693
    29   1 H        0.808     0.294     0.740     1.351
    30   1 H        0.807     0.287     0.761     1.370
    31   8 O        1.741    -0.379    20.420     6.102
    32  17 Cl       0.938     0.068    97.175    15.081
    33   1 H        0.810     0.324     0.651     1.267
    34   8 O        0.939    -0.435    22.352     6.341
    35  17 Cl       0.939     0.148    94.866    14.901
    36   1 H        0.649     0.282     0.859     1.490
    37   8 O        1.456    -0.545    24.087     6.615
    38  17 Cl       0.000    -0.285   101.195    15.310
    39   1 H        0.807     0.306     0.704     1.318
    40   8 O        1.744    -0.365    20.151     6.061
    41  17 Cl       0.978     0.048    97.787    15.129
    42   1 H        0.845     0.331     0.628     1.242
    43   6 C        2.934     0.085    26.108     8.380
    44   6 C        2.982    -0.037    28.923     8.822
    45   6 C        2.926    -0.048    29.180     8.859
    46   6 C        2.887     0.079    26.227     8.396
    47   6 C        2.991    -0.058    29.440     8.900
    48   6 C        2.934     0.093    25.935     8.352
    49   1 H        0.923     0.079     1.993     2.208
    50   1 H        0.924     0.095     1.835     2.119
    51   6 C        2.904     0.075    26.323     8.413
    52   6 C        2.947    -0.012    28.302     8.725
    53   6 C        2.917    -0.054    29.332     8.881
    54   6 C        2.898    -0.005    28.136     8.697
    55   1 H        0.924     0.092     1.860     2.133
    56   6 C        2.963    -0.025    28.631     8.777
    57   6 C        2.899     0.092    25.959     8.354
    58   1 H        0.924     0.099     1.791     2.093
    59   1 H        0.923     0.068     2.106     2.270
    60  17 Cl       0.979    -0.097   102.179    15.465
    61  17 Cl       0.936    -0.135   103.355    15.553
    62   7 N        2.698    -0.211    25.588     7.513
    63   1 H        0.860     0.183     1.195     1.712
    64   6 C        2.678     0.329    21.412     7.572
    65   8 O        0.858    -0.409    21.871     6.270
    66   7 N        2.697    -0.165    24.569     7.362
    67   1 H        0.859     0.202     1.097     1.641
    68   1 H        0.925     0.079     1.993     2.207
    69   1 H        0.926     0.070     2.083     2.257
    70  17 Cl       1.020    -0.114   102.721    15.506

 Mol. C6AA /au·bohr⁶  :      63645.525092
 Mol. C8AA /au·bohr⁸  :    1689308.512758
 Mol. α(0) /au        :        382.165773


Wiberg/Mayer (AO) data.
largest (>0.10) Wiberg bond orders for each atom

 ---------------------------------------------------------------------------
     #   Z sym  total        # sym  WBO       # sym  WBO       # sym  WBO
 ---------------------------------------------------------------------------
     1   8 O    1.838 --     3 H    0.917     2 H    0.917
     2   1 H    0.919 --     1 O    0.917
     3   1 H    0.921 --     1 O    0.917
     4   8 O    1.829 --     6 H    0.913     5 H    0.912
     5   1 H    0.913 --     4 O    0.912
     6   1 H    0.916 --     4 O    0.913
     7   8 O    1.842 --     9 H    0.920     8 H    0.909
     8   1 H    0.915 --     7 O    0.909
     9   1 H    0.925 --     7 O    0.920
    10   8 O    1.874 --    12 H    0.912    11 H    0.907
    11   1 H    0.910 --    10 O    0.907
    12   1 H    0.916 --    10 O    0.912
    13   8 O    1.834 --    15 H    0.919    14 H    0.909
    14   1 H    0.914 --    13 O    0.909
    15   1 H    0.920 --    13 O    0.919
    16   8 O    1.826 --    17 H    0.912    18 H    0.908
    17   1 H    0.918 --    16 O    0.912
    18   1 H    0.914 --    16 O    0.908
    19   8 O    1.834 --    20 H    0.918    21 H    0.912
    20   1 H    0.919 --    19 O    0.918
    21   1 H    0.916 --    19 O    0.912
    22   8 O    1.834 --    24 H    0.918    23 H    0.916
    23   1 H    0.916 --    22 O    0.916
    24   1 H    0.918 --    22 O    0.918
    25   8 O    1.818 --    26 H    0.916    27 H    0.897
    26   1 H    0.916 --    25 O    0.916
    27   1 H    0.904 --    25 O    0.897
    28   8 O    1.820 --    30 H    0.911    29 H    0.907
    29   1 H    0.914 --    28 O    0.907
    30   1 H    0.918 --    28 O    0.911
    31   8 O    1.930 --    32 Cl   1.036    33 H    0.888
    32  17 Cl   1.050 --    31 O    1.036
    33   1 H    0.894 --    31 O    0.888
    34   8 O    1.187 --    35 Cl   1.183
    35  17 Cl   1.191 --    34 O    1.183
    36   1 H    0.920 --    37 O    0.915
    37   8 O    1.820 --    36 H    0.915    39 H    0.900
    38  17 Cl   0.000
    39   1 H    0.906 --    37 O    0.900
    40   8 O    1.951 --    41 Cl   1.066    42 H    0.885
    41  17 Cl   1.073 --    40 O    1.066
    42   1 H    0.890 --    40 O    0.885
    43   6 C    3.879 --    44 C    1.397    48 C    1.343    60 Cl   0.993
    44   6 C    3.943 --    45 C    1.411    43 C    1.397    49 H    0.960
    45   6 C    3.929 --    44 C    1.411    46 C    1.365    50 H    0.959
    46   6 C    3.925 --    45 C    1.365    47 C    1.346    62 N    1.072
    47   6 C    3.927 --    48 C    1.397    46 C    1.346    69 H    0.957
    48   6 C    3.887 --    47 C    1.397    43 C    1.343    70 Cl   0.993
    49   1 H    0.992 --    44 C    0.960
    50   1 H    0.988 --    45 C    0.959
    51   6 C    3.888 --    52 C    1.402    53 C    1.302    66 N    1.033
    52   6 C    3.900 --    51 C    1.402    54 C    1.377    55 H    0.949
    53   6 C    3.917 --    56 C    1.475    51 C    1.302    68 H    0.957
                            54 C    0.101
    54   6 C    3.892 --    52 C    1.377    57 C    1.354    58 H    0.957
                            53 C    0.101
    55   1 H    0.982 --    52 C    0.949
    56   6 C    3.940 --    53 C    1.475    57 C    1.380    59 H    0.959
    57   6 C    3.835 --    56 C    1.380    54 C    1.354    61 Cl   0.961
    58   1 H    0.985 --    54 C    0.957
    59   1 H    0.991 --    56 C    0.959
    60  17 Cl   1.124 --    43 C    0.993
    61  17 Cl   1.073 --    57 C    0.961
    62   7 N    3.299 --    46 C    1.072    64 C    1.035    63 H    0.926
    63   1 H    0.965 --    62 N    0.926
    64   6 C    3.939 --    65 O    1.647    66 N    1.202    62 N    1.035
    65   8 O    1.964 --    64 C    1.647    66 N    0.154
    66   7 N    3.423 --    64 C    1.202    51 C    1.033    67 H    0.918
                            65 O    0.154
    67   1 H    0.957 --    66 N    0.918
    68   1 H    0.991 --    53 C    0.957
    69   1 H    0.994 --    47 C    0.957
    70  17 Cl   1.128 --    48 C    0.993
 ---------------------------------------------------------------------------

Topologies differ in total number of bonds
Writing topology from bond orders to xtbtopo.mol

molecular dipole:
                 x           y           z       tot (Debye)
 q only:        1.582      -2.863      -1.782
   full:        2.191      -2.667      -1.870       9.978
molecular quadrupole (traceless):
                xx          xy          yy          xz          yz          zz
 q only:       35.498     -31.504      -1.519     -11.764       4.339     -33.978
  q+dip:       32.155     -38.126      -1.930     -27.206       2.617     -30.225
   full:       32.577     -36.350      -5.126     -25.838       2.993     -27.451


           -------------------------------------------------
          | TOTAL ENERGY             -142.898441860113 Eh   |
          | GRADIENT NORM               0.319801892221 Eh/α |
          | HOMO-LUMO GAP               0.026836050143 eV   |
           -------------------------------------------------

------------------------------------------------------------------------
 * finished run on 2025/04/07 at 09:40:52.983     
------------------------------------------------------------------------
 total:
 * wall-time:     0 d,  0 h,  0 min,  0.237 sec
 *  cpu-time:     0 d,  0 h,  0 min,  1.477 sec
 * ratio c/w:     6.226 speedup
 SCF:
 * wall-time:     0 d,  0 h,  0 min,  0.172 sec
 *  cpu-time:     0 d,  0 h,  0 min,  1.344 sec
 * ratio c/w:     7.833 speedup

