      -----------------------------------------------------------      
     |                   =====================                   |     
     |                           x T B                           |     
     |                   =====================                   |     
     |                         S. Grimme                         |     
     |          Mulliken Center for Theoretical Chemistry        |     
     |                    University of Bonn                     |     
      -----------------------------------------------------------      

   * xtb version 6.6.1 (8d0f1dd) compiled by 'stahn@M-Bot' on 2023-08-01

   xtb is free software: you can redistribute it and/or modify it under
   the terms of the GNU Lesser General Public License as published by
   the Free Software Foundation, either version 3 of the License, or
   (at your option) any later version.
   
   xtb is distributed in the hope that it will be useful,
   but WITHOUT ANY WARRANTY; without even the implied warranty of
   MERCHANTABILITY or FITNESS FOR A PARTICULAR PURPOSE.  See the
   GNU Lesser General Public License for more details.
   
   Cite this work as:
   * C. Bannwarth, E. Caldeweyher, S. Ehlert, A. Hansen, P. Pracht,
     J. Seibert, S. Spicher, S. Grimme, WIREs Comput. Mol. Sci., 2020, 11,
     e01493. DOI: 10.1002/wcms.1493
   
   for GFN2-xTB:
   * C. Bannwarth, S. Ehlert and S. Grimme., J. Chem. Theory Comput., 2019,
     15, 1652-1671. DOI: 10.1021/acs.jctc.8b01176
   for GFN1-xTB:
   * S. Grimme, C. Bannwarth, P. Shushkov, J. Chem. Theory Comput., 2017,
     13, 1989-2009. DOI: 10.1021/acs.jctc.7b00118
   for GFN0-xTB:
   * P. Pracht, E. Caldeweyher, S. Ehlert, S. Grimme, ChemRxiv, 2019, preprint.
     DOI: 10.26434/chemrxiv.8326202.v1
   for GFN-FF:
   * S. Spicher and S. Grimme, Angew. Chem. Int. Ed., 2020, 59, 15665-15673.
     DOI: 10.1002/anie.202004239
   
   for ALPB and GBSA implicit solvation:
   * S. Ehlert, M. Stahn, S. Spicher, S. Grimme, J. Chem. Theory Comput.,
     2021, 17, 4250-4261. DOI: 10.1021/acs.jctc.1c00471
   
   for DFT-D4:
   * E. Caldeweyher, C. Bannwarth and S. Grimme, J. Chem. Phys., 2017,
     147, 034112. DOI: 10.1063/1.4993215
   * E. Caldeweyher, S. Ehlert, A. Hansen, H. Neugebauer, S. Spicher,
     C. Bannwarth and S. Grimme, J. Chem. Phys., 2019, 150, 154122.
     DOI: 10.1063/1.5090222
   * E. Caldeweyher, J.-M. Mewes, S. Ehlert and S. Grimme, Phys. Chem. Chem. Phys.
     2020, 22, 8499-8512. DOI: 10.1039/D0CP00502A
   
   for sTDA-xTB:
   * S. Grimme and C. Bannwarth, J. Chem. Phys., 2016, 145, 054103.
     DOI: 10.1063/1.4959605
   
   in the mass-spec context:
   * V. Asgeirsson, C. Bauer and S. Grimme, Chem. Sci., 2017, 8, 4879.
     DOI: 10.1039/c7sc00601b
   * J. Koopman and S. Grimme, ACS Omega 2019, 4, 12, 15120-15133.
     DOI: 10.1021/acsomega.9b02011
   
   for metadynamics refer to:
   * S. Grimme, J. Chem. Theory Comput., 2019, 155, 2847-2862
     DOI: 10.1021/acs.jctc.9b00143
   
   for SPH calculations refer to:
   * S. Spicher and S. Grimme, J. Chem. Theory Comput., 2021, 17, 1701-1714
     DOI: 10.1021/acs.jctc.0c01306
   
   with help from (in alphabetical order)
   P. Atkinson, C. Bannwarth, F. Bohle, G. Brandenburg, E. Caldeweyher
   M. Checinski, S. Dohm, S. Ehlert, S. Ehrlich, I. Gerasimov, C. Hölzer
   A. Katbashev, J. Koopman, C. Lavigne, S. Lehtola, F. März, M. Müller,
   F. Musil, H. Neugebauer, J. Pisarek, C. Plett, P. Pracht, F. Pultar,
   J. Seibert, P. Shushkov, S. Spicher, M. Stahn, M. Steiner, T. Strunk,
   J. Stückrath, T. Rose, and J. Unsleber
   
 * started run on 2025/04/07 at 09:40:50.578     

           -------------------------------------------------
          |                Calculation Setup                |
           -------------------------------------------------

          program call               : xtb 559.xyz --input 559.inp
          hostname                   : serv11
          coordinate file            : 559.xyz
          omp threads                :                     8

   ID    Z sym.   atoms
    1    8 O      1, 4, 7, 10, 13, 16, 19, 22, 25, 28, 31, 34, 37, 40, 65
    2    1 H      2, 3, 5, 6, 8, 9, 11, 12, 14, 15, 17, 18, 20, 21, 23, 24,
                  26, 27, 29, 30, 33, 36, 39, 42, 49, 50, 55, 58, 59, 63,
                  67-69
    3   17 Cl     32, 35, 38, 41, 60, 61, 70
    4    6 C      43-48, 51-54, 56, 57, 64
    5    7 N      62, 66

molecular fragmentation (1/2 indicates fragments):
1112222222222222222222222222222222222222222222222222222222222222222222
# atoms in fragment 1/2:     3    67
 fragment masses (1/2) :       18.02      687.56
CMA distance (Bohr)    :  13.606
constraining FC (au)   :  0.0500

           -------------------------------------------------
          |                 G F N 2 - x T B                 |
           -------------------------------------------------

        Reference                      10.1021/acs.jctc.8b01176
      * Hamiltonian:
        H0-scaling (s, p, d)           1.850000    2.230000    2.230000
        zeta-weighting                 0.500000
      * Dispersion:
        s8                             2.700000
        a1                             0.520000
        a2                             5.000000
        s9                             5.000000
      * Repulsion:
        kExp                           1.500000    1.000000
        rExp                           1.000000
      * Coulomb:
        alpha                          2.000000
        third order                    shell-resolved
        anisotropic                    true
        a3                             3.000000
        a5                             4.000000
        cn-shift                       1.200000
        cn-exp                         4.000000
        max-rad                        5.000000

q/qsh data taken from xtbrestart
CAMM data taken from xtbrestart

          ...................................................
          :                      SETUP                      :
          :.................................................:
          :  # basis functions                 223          :
          :  # atomic orbitals                 216          :
          :  # shells                          114          :
          :  # electrons                       234          :
          :  max. iterations                   800          :
          :  Hamiltonian                  GFN2-xTB          :
          :  restarted?                       true          :
          :  GBSA solvation                  false          :
          :  PC potential                    false          :
          :  electronic temp.         6000.0000000     K    :
          :  accuracy                    1.0000000          :
          :  -> integral cutoff          0.2500000E+02      :
          :  -> integral neglect         0.1000000E-07      :
          :  -> SCF convergence          0.1000000E-05 Eh   :
          :  -> wf. convergence          0.1000000E-03 e    :
          :  Broyden damping             0.4000000          :
          ...................................................

 iter      E             dE          RMSdq      gap      omega  full diag
   1   -143.9181528 -0.143918E+03  0.288E+00    0.04       0.0  T
   2   -143.9364895 -0.183367E-01  0.180E+00    0.03       1.0  T
   3   -143.7581908  0.178299E+00  0.156E+00    0.26       1.0  T
   4   -143.9630441 -0.204853E+00  0.520E-01    0.03       1.0  T
   5   -143.9716430 -0.859886E-02  0.486E-01    0.02       1.0  T
   6   -143.9891487 -0.175057E-01  0.253E-01    0.03       1.0  T
   7   -143.9914410 -0.229235E-02  0.175E-01    0.03       1.0  T
   8   -143.9926938 -0.125283E-02  0.120E-01    0.03       1.0  T
   9   -143.9930113 -0.317469E-03  0.841E-02    0.03       1.0  T
  10   -143.9932464 -0.235095E-03  0.539E-02    0.03       1.0  T
  11   -143.9933451 -0.987290E-04  0.308E-02    0.03       1.0  T
  12   -143.9933785 -0.334008E-04  0.188E-02    0.03       1.0  T
  13   -143.9933910 -0.124215E-04  0.123E-02    0.03       1.0  T
  14   -143.9933947 -0.372396E-05  0.908E-03    0.03       1.3  T
  15   -143.9933976 -0.290045E-05  0.571E-03    0.03       2.1  T
  16   -143.9933988 -0.122850E-05  0.317E-03    0.03       3.8  T
  17   -143.9933992 -0.422583E-06  0.204E-03    0.03       5.8  T
  18   -143.9933994 -0.109869E-06  0.158E-03    0.03       7.6  T
  19   -143.9933994 -0.802240E-07  0.119E-03    0.03      10.0  T
  20   -143.9933995 -0.556025E-07  0.808E-04    0.03      14.8  T
  21   -143.9933995 -0.328743E-07  0.436E-04    0.03      27.4  T

   *** convergence criteria satisfied after 21 iterations ***

         #    Occupation            Energy/Eh            Energy/eV
      -------------------------------------------------------------
         1        2.0000           -1.0817190             -29.4351
       ...           ...                  ...                  ...
       111        1.9244           -0.4102244             -11.1628
       112        1.8806           -0.4010881             -10.9142
       113        1.8360           -0.3946039             -10.7377
       114        1.7610           -0.3866550             -10.5214
       115        1.7539           -0.3860248             -10.5043
       116        1.7461           -0.3853492             -10.4859
       117        1.6466           -0.3779468             -10.2845 (HOMO)
       118        1.6288           -0.3768060             -10.2534 (LUMO)
       119        0.0819           -0.2887831              -7.8582
       120        0.0630           -0.2836293              -7.7179
       121        0.0340           -0.2716021              -7.3907
       122        0.0209           -0.2622599              -7.1365
       ...           ...                  ...                  ...
       216                          0.7422240              20.1969
      -------------------------------------------------------------
                  HL-Gap            0.0011408 Eh            0.0310 eV
             Fermi-level           -0.3487085 Eh           -9.4888 eV

 SCC (total)                   0 d,  0 h,  0 min,  0.146 sec
 SCC setup                      ...        0 min,  0.000 sec (  0.262%)
 Dispersion                     ...        0 min,  0.001 sec (  0.593%)
 classical contributions        ...        0 min,  0.000 sec (  0.109%)
 integral evaluation            ...        0 min,  0.016 sec ( 11.088%)
 iterations                     ...        0 min,  0.117 sec ( 79.889%)
 molecular gradient             ...        0 min,  0.011 sec (  7.772%)
 printout                       ...        0 min,  0.000 sec (  0.245%)

         :::::::::::::::::::::::::::::::::::::::::::::::::::::
         ::                     SUMMARY                     ::
         :::::::::::::::::::::::::::::::::::::::::::::::::::::
         :: total energy            -142.896599560009 Eh    ::
         :: gradient norm              0.298323872737 Eh/a0 ::
         :: HOMO-LUMO gap              0.031043119493 eV    ::
         ::.................................................::
         :: SCC energy              -143.993399519900 Eh    ::
         :: -> isotropic ES            0.465054201425 Eh    ::
         :: -> anisotropic ES         -0.015288982161 Eh    ::
         :: -> anisotropic XC         -0.000076045041 Eh    ::
         :: -> dispersion             -0.057774465516 Eh    ::
         :: repulsion energy           1.095278246014 Eh    ::
         :: add. restraining           0.000000000000 Eh    ::
         :: total charge               0.000000000001 e     ::
         :::::::::::::::::::::::::::::::::::::::::::::::::::::

           -------------------------------------------------
          |                Property Printout                |
           -------------------------------------------------

    * Orbital Energies and Occupations

         #    Occupation            Energy/Eh            Energy/eV
      -------------------------------------------------------------
         1        2.0000           -1.0817190             -29.4351
       ...           ...                  ...                  ...
       105        1.9782           -0.4343981             -11.8206
       106        1.9777           -0.4339541             -11.8085
       107        1.9737           -0.4307554             -11.7215
       108        1.9689           -0.4275298             -11.6337
       109        1.9625           -0.4239270             -11.5356
       110        1.9519           -0.4190700             -11.4035
       111        1.9244           -0.4102244             -11.1628
       112        1.8806           -0.4010881             -10.9142
       113        1.8360           -0.3946039             -10.7377
       114        1.7610           -0.3866550             -10.5214
       115        1.7539           -0.3860248             -10.5043
       116        1.7461           -0.3853492             -10.4859
       117        1.6466           -0.3779468             -10.2845 (HOMO)
       118        1.6288           -0.3768060             -10.2534 (LUMO)
       119        0.0819           -0.2887831              -7.8582
       120        0.0630           -0.2836293              -7.7179
       121        0.0340           -0.2716021              -7.3907
       122        0.0209           -0.2622599              -7.1365
       123        0.0167           -0.2579053              -7.0180
       124        0.0080           -0.2438132              -6.6345
       125        0.0023           -0.2202415              -5.9931
       126        0.0004           -0.1860355              -5.0623
       127        0.0002           -0.1712015              -4.6586
       128        0.0000           -0.1447212              -3.9381
       ...           ...                  ...                  ...
       216                          0.7422240              20.1969
      -------------------------------------------------------------
                  HL-Gap            0.0011408 Eh            0.0310 eV
             Fermi-level           -0.3487085 Eh           -9.4888 eV

     #   Z          covCN         q      C6AA      α(0)
     1   8 O        1.610    -0.574    24.572     6.690
     2   1 H        0.804     0.292     0.745     1.356
     3   1 H        0.806     0.292     0.744     1.355
     4   8 O        1.610    -0.564    24.344     6.659
     5   1 H        0.807     0.287     0.759     1.369
     6   1 H        0.803     0.280     0.786     1.393
     7   8 O        1.580    -0.560    24.282     6.650
     8   1 H        0.808     0.293     0.743     1.354
     9   1 H        0.773     0.277     0.802     1.410
    10   8 O        1.595    -0.560    24.255     6.646
    11   1 H        0.803     0.304     0.709     1.323
    12   1 H        0.789     0.299     0.728     1.342
    13   8 O        1.611    -0.560    24.244     6.646
    14   1 H        0.807     0.298     0.725     1.337
    15   1 H        0.803     0.280     0.785     1.392
    16   8 O        1.601    -0.557    24.199     6.639
    17   1 H        0.804     0.284     0.773     1.381
    18   1 H        0.797     0.280     0.785     1.392
    19   8 O        1.614    -0.572    24.532     6.685
    20   1 H        0.804     0.283     0.774     1.382
    21   1 H        0.806     0.292     0.746     1.357
    22   8 O        1.609    -0.560    24.259     6.648
    23   1 H        0.804     0.287     0.762     1.371
    24   1 H        0.805     0.290     0.751     1.361
    25   8 O        1.613    -0.573    24.541     6.686
    26   1 H        0.806     0.292     0.744     1.355
    27   1 H        0.807     0.300     0.719     1.332
    28   8 O        1.616    -0.585    24.820     6.724
    29   1 H        0.809     0.302     0.715     1.328
    30   1 H        0.808     0.293     0.743     1.353
    31   8 O        1.735    -0.404    20.907     6.174
    32  17 Cl       0.929     0.051    97.666    15.119
    33   1 H        0.808     0.320     0.664     1.280
    34   8 O        0.938    -0.422    22.085     6.303
    35  17 Cl       0.938     0.154    94.702    14.888
    36   1 H        0.709     0.280     0.818     1.435
    37   8 O        1.514    -0.542    23.925     6.597
    38  17 Cl       0.000    -0.261   100.440    15.252
    39   1 H        0.805     0.297     0.730     1.342
    40   8 O        1.728    -0.400    20.833     6.163
    41  17 Cl       0.923     0.031    98.274    15.166
    42   1 H        0.807     0.316     0.674     1.289
    43   6 C        2.990     0.069    26.442     8.435
    44   6 C        2.958    -0.048    29.201     8.863
    45   6 C        2.912    -0.049    29.216     8.863
    46   6 C        2.884     0.089    26.026     8.364
    47   6 C        3.048    -0.073    29.769     8.948
    48   6 C        2.946     0.100    25.787     8.329
    49   1 H        0.924     0.088     1.894     2.152
    50   1 H        0.925     0.097     1.809     2.103
    51   6 C        2.899     0.092    25.959     8.354
    52   6 C        2.954    -0.026    28.648     8.779
    53   6 C        2.972    -0.040    28.981     8.830
    54   6 C        3.008    -0.017    28.411     8.744
    55   1 H        0.925     0.087     1.911     2.162
    56   6 C        2.973    -0.040    28.984     8.831
    57   6 C        2.890     0.108    25.614     8.298
    58   1 H        0.924     0.090     1.879     2.144
    59   1 H        0.924     0.067     2.118     2.276
    60  17 Cl       0.992    -0.107   102.482    15.488
    61  17 Cl       1.032    -0.101   102.302    15.474
    62   7 N        2.690    -0.194    25.216     7.458
    63   1 H        0.860     0.186     1.180     1.702
    64   6 C        2.680     0.340    21.217     7.538
    65   8 O        0.861    -0.351    20.726     6.104
    66   7 N        2.726    -0.176    24.816     7.399
    67   1 H        0.858     0.187     1.174     1.698
    68   1 H        0.924     0.071     2.076     2.253
    69   1 H        0.927     0.085     1.930     2.173
    70  17 Cl       1.197    -0.095   102.126    15.461

 Mol. C6AA /au·bohr⁶  :      63640.671986
 Mol. C8AA /au·bohr⁸  :    1688898.196008
 Mol. α(0) /au        :        382.143453


Wiberg/Mayer (AO) data.
largest (>0.10) Wiberg bond orders for each atom

 ---------------------------------------------------------------------------
     #   Z sym  total        # sym  WBO       # sym  WBO       # sym  WBO
 ---------------------------------------------------------------------------
     1   8 O    1.826 --     2 H    0.913     3 H    0.907
     2   1 H    0.914 --     1 O    0.913
     3   1 H    0.914 --     1 O    0.907
     4   8 O    1.835 --     6 H    0.918     5 H    0.914
     5   1 H    0.917 --     4 O    0.914
     6   1 H    0.922 --     4 O    0.918
     7   8 O    1.840 --     9 H    0.922     8 H    0.912
     8   1 H    0.914 --     7 O    0.912
     9   1 H    0.923 --     7 O    0.922
    10   8 O    1.850 --    12 H    0.899    11 H    0.882
    11   1 H    0.907 --    10 O    0.882
    12   1 H    0.909 --    10 O    0.899
    13   8 O    1.831 --    15 H    0.917    14 H    0.904
    14   1 H    0.911 --    13 O    0.904
    15   1 H    0.921 --    13 O    0.917
    16   8 O    1.835 --    18 H    0.917    17 H    0.913
    17   1 H    0.919 --    16 O    0.913
    18   1 H    0.921 --    16 O    0.917
    19   8 O    1.834 --    20 H    0.917    21 H    0.909
    20   1 H    0.920 --    19 O    0.917
    21   1 H    0.915 --    19 O    0.909
    22   8 O    1.833 --    23 H    0.917    24 H    0.915
    23   1 H    0.918 --    22 O    0.917
    24   1 H    0.916 --    22 O    0.915
    25   8 O    1.822 --    26 H    0.913    27 H    0.905
    26   1 H    0.914 --    25 O    0.913
    27   1 H    0.910 --    25 O    0.905
    28   8 O    1.822 --    30 H    0.913    29 H    0.908
    29   1 H    0.909 --    28 O    0.908
    30   1 H    0.914 --    28 O    0.913
    31   8 O    1.886 --    32 Cl   0.990    33 H    0.891
    32  17 Cl   1.012 --    31 O    0.990
    33   1 H    0.896 --    31 O    0.891
    34   8 O    1.171 --    35 Cl   1.169
    35  17 Cl   1.175 --    34 O    1.169
    36   1 H    0.921 --    37 O    0.915
    37   8 O    1.825 --    36 H    0.915    39 H    0.906
    38  17 Cl   0.001
    39   1 H    0.912 --    37 O    0.906
    40   8 O    1.866 --    41 Cl   0.972    42 H    0.894
    41  17 Cl   0.978 --    40 O    0.972
    42   1 H    0.898 --    40 O    0.894
    43   6 C    3.842 --    44 C    1.368    48 C    1.311    60 Cl   0.994
    44   6 C    3.934 --    45 C    1.449    43 C    1.368    49 H    0.954
    45   6 C    3.916 --    44 C    1.449    46 C    1.318    50 H    0.957
    46   6 C    3.906 --    45 C    1.318    47 C    1.276    62 N    1.157
    47   6 C    3.916 --    48 C    1.453    46 C    1.276    69 H    0.956
    48   6 C    3.897 --    47 C    1.453    43 C    1.311    70 Cl   1.006
    49   1 H    0.988 --    44 C    0.954
    50   1 H    0.987 --    45 C    0.957
    51   6 C    3.909 --    53 C    1.387    52 C    1.362    66 N    1.033
    52   6 C    3.897 --    51 C    1.362    54 C    1.358    55 H    0.963
                            56 C    0.112
    53   6 C    3.948 --    56 C    1.456    51 C    1.387    68 H    0.954
    54   6 C    3.936 --    57 C    1.440    52 C    1.358    58 H    0.938
    55   1 H    0.987 --    52 C    0.963
    56   6 C    3.918 --    53 C    1.456    57 C    1.310    59 H    0.966
                            52 C    0.112
    57   6 C    3.874 --    54 C    1.440    56 C    1.310    61 Cl   1.006
    58   1 H    0.987 --    54 C    0.938
    59   1 H    0.992 --    56 C    0.966
    60  17 Cl   1.126 --    43 C    0.994
    61  17 Cl   1.133 --    57 C    1.006
    62   7 N    3.328 --    46 C    1.157    64 C    0.974    63 H    0.924
    63   1 H    0.963 --    62 N    0.924
    64   6 C    3.942 --    65 O    1.756    66 N    1.157    62 N    0.974
    65   8 O    2.079 --    64 C    1.756    66 N    0.165
    66   7 N    3.400 --    64 C    1.157    51 C    1.033    67 H    0.927
                            65 O    0.165
    67   1 H    0.963 --    66 N    0.927
    68   1 H    0.991 --    53 C    0.954
    69   1 H    0.991 --    47 C    0.956
    70  17 Cl   1.156 --    48 C    1.006
 ---------------------------------------------------------------------------

Topologies differ in total number of bonds
Writing topology from bond orders to xtbtopo.mol

molecular dipole:
                 x           y           z       tot (Debye)
 q only:        1.614      -3.143      -2.321
   full:        3.043      -3.112      -2.596      12.882
molecular quadrupole (traceless):
                xx          xy          yy          xz          yz          zz
 q only:       38.945      -8.646      -4.813      -7.294      -2.356     -34.132
  q+dip:       37.556     -10.672      -4.768     -16.642      -4.732     -32.788
   full:       37.824      -9.473      -7.492     -15.047      -4.992     -30.332


           -------------------------------------------------
          | TOTAL ENERGY             -142.896599560009 Eh   |
          | GRADIENT NORM               0.298323872737 Eh/α |
          | HOMO-LUMO GAP               0.031043119493 eV   |
           -------------------------------------------------

------------------------------------------------------------------------
 * finished run on 2025/04/07 at 09:40:50.812     
------------------------------------------------------------------------
 total:
 * wall-time:     0 d,  0 h,  0 min,  0.233 sec
 *  cpu-time:     0 d,  0 h,  0 min,  1.291 sec
 * ratio c/w:     5.538 speedup
 SCF:
 * wall-time:     0 d,  0 h,  0 min,  0.147 sec
 *  cpu-time:     0 d,  0 h,  0 min,  1.163 sec
 * ratio c/w:     7.915 speedup

