70
 energy: -143.140132833943 gnorm: 0.115925027927 xtb: 6.6.1 (8d0f1dd)
O     2.33687067    -4.06373539    -0.00857742
H     3.20084313    -3.69227028    -0.19540163
H     2.31054884    -4.24782998     0.93203675
O    -1.72005405     1.01377233    -1.88829965
H    -0.99115123     1.52021460    -1.52559356
H    -2.24562178     0.65679850    -1.17018662
O    -0.86925181     0.69263533     3.38773283
H    -1.38907049     0.15605083     2.78673015
H    -0.07823568     0.18722820     3.58316947
O    -1.79421061    -1.03190982     1.51894111
H    -2.60446546    -0.93559168     1.01540474
H    -1.24425804    -1.50710557     0.89357751
O     0.70376835    -2.32249013    -2.88445667
H     1.65656301    -2.21993343    -2.85277642
H     0.42609732    -1.57512990    -3.41708186
O    -1.87184932    -3.62586974    -3.76277311
H    -1.68023603    -3.39539834    -4.67354490
H    -1.14773872    -3.39072337    -3.17992708
O     0.15031784    -1.80616063    -0.40284894
H     0.12312594    -1.77289273    -1.36070659
H     0.37485721    -2.72693176    -0.25758648
O    -3.83831375    -2.68935162    -2.06562566
H    -4.43254537    -2.55473735    -2.80596745
H    -3.24458899    -3.39480806    -2.32860596
O     0.25193739     0.36883354    -3.94724931
H     0.95590959     1.00639910    -3.81582668
H    -0.47555276     0.69243555    -3.41304182
O    -3.81794612    -0.35184760    -0.56945390
H    -3.67873590    -1.12174822    -1.12372088
H    -4.62237654     0.11794655    -0.79644166
O    -2.82438002     2.05411649    -4.41958110
Cl    -4.29594528     2.45305168    -3.66029945
H    -2.26184170     1.43662942    -3.93703910
O     2.32025785     1.64419693     3.88101736
Cl     3.29310702     1.50405064     5.27209182
H     1.64234312     2.24651606     4.21000121
O     1.19924028    -1.18879201     2.09469178
Cl     2.79838350    -1.77503289     2.10973879
H     0.92464757    -1.23967191     1.17133042
O     0.11247033     3.04195589     5.02720308
Cl    -0.75079253     4.50519081     4.90521274
H    -0.46746420     2.29855450     4.82319720
C     5.05458673    -0.32165723    -0.14241854
C     5.16014614     0.78777840     0.68748042
C     4.16161229     1.66013385     1.07685814
C     2.90146795     1.25308218     0.62604107
C     2.70503236     0.21905108    -0.28888417
C     3.77750336    -0.60098068    -0.62017758
H     6.16444728     1.12821940     0.90268739
H     4.30424632     2.59169990     1.61336136
C    -1.61077263     3.16622496     0.99536660
C    -1.74513929     3.87189752    -0.20290270
C    -2.73249179     2.93481155     1.79664752
C    -2.99736389     4.28915628    -0.63591333
H    -0.83624196     4.09154672    -0.73958314
C    -3.97454580     3.38937197     1.38465361
C    -4.10661322     3.95076529     0.12311555
H    -3.11750009     4.77848553    -1.59375433
H    -4.90382590     3.10857377     1.86254682
Cl     6.30435502    -1.52131625    -0.20649574
Cl    -5.77266106     4.29363052    -0.26334003
N     1.76458559     1.85642293     1.18551707
H     1.83191018     1.84157812     2.19100290
C     0.69917162     2.41281369     0.49549057
O     0.63872105     2.46507078    -0.70985139
N    -0.32661714     2.72469305     1.36654860
H    -0.32728716     2.20948407     2.23280913
H    -2.64254440     2.30548949     2.67601506
H     1.69856766    -0.12367802    -0.46645252
Cl     3.58051554    -1.88837257    -1.76436599
