 Entering Gaussian System, Link 0=g16
 Input=ts.gjf
 Output=ts.log
 Initial command:
 /share/apps/g16.a03/g16/l1.exe "/tmp/Gau-14948.inp" -scrdir="/tmp/"
 Entering Link 1 = /share/apps/g16.a03/g16/l1.exe PID=     14950.
  
 Copyright (c) 1988,1990,1992,1993,1995,1998,2003,2009,2016,
            Gaussian, Inc.  All Rights Reserved.
  
 This is part of the Gaussian(R) 16 program.  It is based on
 the Gaussian(R) 09 system (copyright 2009, Gaussian, Inc.),
 the Gaussian(R) 03 system (copyright 2003, Gaussian, Inc.),
 the Gaussian(R) 98 system (copyright 1998, Gaussian, Inc.),
 the Gaussian(R) 94 system (copyright 1995, Gaussian, Inc.),
 the Gaussian 92(TM) system (copyright 1992, Gaussian, Inc.),
 the Gaussian 90(TM) system (copyright 1990, Gaussian, Inc.),
 the Gaussian 88(TM) system (copyright 1988, Gaussian, Inc.),
 the Gaussian 86(TM) system (copyright 1986, Carnegie Mellon
 University), and the Gaussian 82(TM) system (copyright 1983,
 Carnegie Mellon University). Gaussian is a federally registered
 trademark of Gaussian, Inc.
  
 This software contains proprietary and confidential information,
 including trade secrets, belonging to Gaussian, Inc.
  
 This software is provided under written license and may be
 used, copied, transmitted, or stored only in accord with that
 written license.
  
 The following legend is applicable only to US Government
 contracts under FAR:
  
                    RESTRICTED RIGHTS LEGEND
  
 Use, reproduction and disclosure by the US Government is
 subject to restrictions as set forth in subparagraphs (a)
 and (c) of the Commercial Computer Software - Restricted
 Rights clause in FAR 52.227-19.
  
 Gaussian, Inc.
 340 Quinnipiac St., Bldg. 40, Wallingford CT 06492
  
  
 ---------------------------------------------------------------
 Warning -- This program may not be used in any manner that
 competes with the business of Gaussian, Inc. or will provide
 assistance to any competitor of Gaussian, Inc.  The licensee
 of this program is prohibited from giving any competitor of
 Gaussian, Inc. access to this program.  By using this program,
 the user acknowledges that Gaussian, Inc. is engaged in the
 business of creating and licensing software in the field of
 computational chemistry and represents and warrants to the
 licensee that it is not a competitor of Gaussian, Inc. and that
 it will not use this program in any manner prohibited above.
 ---------------------------------------------------------------
  

 Cite this work as:
 Gaussian 16, Revision A.03,
 M. J. Frisch, G. W. Trucks, H. B. Schlegel, G. E. Scuseria, 
 M. A. Robb, J. R. Cheeseman, G. Scalmani, V. Barone, 
 G. A. Petersson, H. Nakatsuji, X. Li, M. Caricato, A. V. Marenich, 
 J. Bloino, B. G. Janesko, R. Gomperts, B. Mennucci, H. P. Hratchian, 
 J. V. Ortiz, A. F. Izmaylov, J. L. Sonnenberg, D. Williams-Young, 
 F. Ding, F. Lipparini, F. Egidi, J. Goings, B. Peng, A. Petrone, 
 T. Henderson, D. Ranasinghe, V. G. Zakrzewski, J. Gao, N. Rega, 
 G. Zheng, W. Liang, M. Hada, M. Ehara, K. Toyota, R. Fukuda, 
 J. Hasegawa, M. Ishida, T. Nakajima, Y. Honda, O. Kitao, H. Nakai, 
 T. Vreven, K. Throssell, J. A. Montgomery, Jr., J. E. Peralta, 
 F. Ogliaro, M. J. Bearpark, J. J. Heyd, E. N. Brothers, K. N. Kudin, 
 V. N. Staroverov, T. A. Keith, R. Kobayashi, J. Normand, 
 K. Raghavachari, A. P. Rendell, J. C. Burant, S. S. Iyengar, 
 J. Tomasi, M. Cossi, J. M. Millam, M. Klene, C. Adamo, R. Cammi, 
 J. W. Ochterski, R. L. Martin, K. Morokuma, O. Farkas, 
 J. B. Foresman, and D. J. Fox, Gaussian, Inc., Wallingford CT, 2016.
 
 ******************************************
 Gaussian 16:  EM64L-G16RevA.03 25-Dec-2016
                 6-Mar-2025 
 ******************************************
 %nproc=8
 Will use up to    8 processors via shared memory.
 %mem=4000MB
 --------------------------------------------------------------------
 #opt=(noeigen,calcfc,ts,recalc=5,maxcyc=200) freq B3LYP/SVP em=GD3BJ
 --------------------------------------------------------------------
 1/5=1,6=200,10=4,11=1,18=20,26=3,38=1,71=5/1,3;
 2/9=110,12=2,17=6,18=5,40=1/2;
 3/5=18,7=101,11=2,25=1,30=1,71=2,74=-5,124=41,140=1/1,2,3;
 4//1;
 5/5=2,38=5/2;
 8/6=4,10=90,11=11/1;
 11/6=1,8=1,9=11,15=111,16=1/1,2,10;
 10/6=1,13=1/2;
 6/7=2,8=2,9=2,10=2,28=1/1;
 7/10=1,18=20,25=1/1,2,3,16;
 1/5=1,6=200,10=4,11=1,18=20,26=3,71=5/3(2);
 2/9=110/2;
 99//99;
 2/9=110/2;
 3/5=18,7=101,11=2,25=1,30=1,71=1,74=-5,124=41/1,2,3;
 4/5=5,16=3,69=1/1;
 5/5=2,38=5/2;
 7//1,2,3,16;
 1/5=1,6=200,11=1,18=20,26=3,71=5/3(-5);
 2/9=110/2;
 6/7=2,8=2,9=2,10=2,19=2,28=1/1;
 99/9=1/99;
 ----------
 ts-399.gjf
 ----------
 Symbolic Z-matrix:
 Charge =  0 Multiplicity = 1
 O                     1.46776  -2.68505   4.10648 
 Cl                    2.38123  -2.55561   5.51511 
 H                     1.22345  -1.89816   3.64455 
 

 GradGradGradGradGradGradGradGradGradGradGradGradGradGradGradGradGradGrad
 Berny optimization.
 Initialization pass.
                           ----------------------------
                           !    Initial Parameters    !
                           ! (Angstroms and Degrees)  !
 --------------------------                            --------------------------
 ! Name  Definition              Value          Derivative Info.                !
 --------------------------------------------------------------------------------
 ! R1    R(1,2)                  1.6839         calculate D2E/DX2 analytically  !
 ! R2    R(1,3)                  0.9446         calculate D2E/DX2 analytically  !
 ! A1    A(2,1,3)              119.0362         calculate D2E/DX2 analytically  !
 --------------------------------------------------------------------------------
 Trust Radius=3.00D-01 FncErr=1.00D-07 GrdErr=1.00D-06 EigMax=2.50D+02 EigMin=1.00D-04
 Number of steps in this run=    100 maximum allowed number of steps=    100.
 Search for a saddle point of order  1.
 GradGradGradGradGradGradGradGradGradGradGradGradGradGradGradGradGradGrad

                          Input orientation:                          
 ---------------------------------------------------------------------
 Center     Atomic      Atomic             Coordinates (Angstroms)
 Number     Number       Type             X           Y           Z
 ---------------------------------------------------------------------
      1          8           0        1.467760   -2.685048    4.106475
      2         17           0        2.381229   -2.555609    5.515110
      3          1           0        1.223450   -1.898163    3.644546
 ---------------------------------------------------------------------
                    Distance matrix (angstroms):
                    1          2          3
     1  O    0.000000
     2  Cl   1.683874   0.000000
     3  H    0.944592   2.296018   0.000000
 Stoichiometry    ClHO
 Framework group  CS[SG(ClHO)]
 Deg. of freedom     3
 Full point group                 CS      NOp   2
 Largest Abelian subgroup         CS      NOp   2
 Largest concise Abelian subgroup C1      NOp   1
                         Standard orientation:                         
 ---------------------------------------------------------------------
 Center     Atomic      Atomic             Coordinates (Angstroms)
 Number     Number       Type             X           Y           Z
 ---------------------------------------------------------------------
      1          8           0        0.031764    1.083361    0.000000
      2         17           0        0.031764   -0.600513   -0.000000
      3          1           0       -0.794105    1.541831    0.000000
 ---------------------------------------------------------------------
 Rotational constants (GHZ):         813.0259479          14.9763434          14.7054614
 Standard basis: SVP (5D, 7F)
 There are    29 symmetry adapted cartesian basis functions of A'  symmetry.
 There are    10 symmetry adapted cartesian basis functions of A"  symmetry.
 There are    27 symmetry adapted basis functions of A'  symmetry.
 There are    10 symmetry adapted basis functions of A"  symmetry.
    37 basis functions,    69 primitive gaussians,    39 cartesian basis functions
    13 alpha electrons       13 beta electrons
       nuclear repulsion energy        51.1394379377 Hartrees.
 NAtoms=    3 NActive=    3 NUniq=    3 SFac= 1.00D+00 NAtFMM=   60 NAOKFM=F Big=F
 Integral buffers will be    131072 words long.
 Raffenetti 2 integral format.
 Two-electron integral symmetry is turned on.
 Nuclear repulsion after empirical dispersion term =       51.1378345729 Hartrees.
 One-electron integrals computed using PRISM.
 NBasis=    37 RedAO= T EigKep=  3.51D-02  NBF=    27    10
 NBsUse=    37 1.00D-06 EigRej= -1.00D+00 NBFU=    27    10
 ExpMin= 1.22D-01 ExpMax= 1.04D+04 ExpMxC= 1.57D+03 IAcc=3 IRadAn=         5 AccDes= 0.00D+00
 Harris functional with IExCor=  402 and IRadAn=       5 diagonalized for initial guess.
 HarFok:  IExCor=  402 AccDes= 0.00D+00 IRadAn=         5 IDoV= 1 UseB2=F ITyADJ=14
 ICtDFT=  3500011 ScaDFX=  1.000000  1.000000  1.000000  1.000000
 FoFCou: FMM=F IPFlag=           0 FMFlag=      100000 FMFlg1=           0
         NFxFlg=           0 DoJE=T BraDBF=F KetDBF=T FulRan=T
         wScrn=  0.000000 ICntrl=       500 IOpCl=  0 I1Cent=   200000004 NGrid=           0
         NMat0=    1 NMatS0=      1 NMatT0=    0 NMatD0=    1 NMtDS0=    0 NMtDT0=    0
 Petite list used in FoFCou.
 Initial guess orbital symmetries:
       Occupied  (A') (A') (A') (A') (A') (A") (A') (A') (A') (A')
                 (A") (A') (A")
       Virtual   (A') (A') (A') (A') (A') (A") (A') (A') (A") (A')
                 (A") (A') (A") (A') (A') (A') (A") (A') (A') (A")
                 (A') (A") (A') (A')
 The electronic state of the initial guess is 1-A'.
 Keep R1 ints in memory in symmetry-blocked form, NReq=7153137.
 Requested convergence on RMS density matrix=1.00D-08 within 128 cycles.
 Requested convergence on MAX density matrix=1.00D-06.
 Requested convergence on             energy=1.00D-06.
 No special actions if energy rises.
 Integral accuracy reduced to 1.0D-05 until final iterations.
 Initial convergence to 1.0D-05 achieved.  Increase integral accuracy.
 SCF Done:  E(RB3LYP) =  -535.752364389     A.U. after   12 cycles
            NFock= 12  Conv=0.30D-08     -V/T= 2.0025
 DoSCS=F DFT=T ScalE2(SS,OS)=  1.000000  1.000000
 Range of M.O.s used for correlation:     1    37
 NBasis=    37 NAE=    13 NBE=    13 NFC=     0 NFV=     0
 NROrb=     37 NOA=    13 NOB=    13 NVA=    24 NVB=    24
 Symmetrizing basis deriv contribution to polar:
 IMax=3 JMax=2 DiffMx= 0.00D+00
 G2DrvN: will do     4 centers at a time, making    1 passes.
 Calling FoFCou, ICntrl=  3107 FMM=F I1Cent=   0 AccDes= 0.00D+00.
 End of G2Drv F.D. properties file   721 does not exist.
 End of G2Drv F.D. properties file   722 does not exist.
 End of G2Drv F.D. properties file   788 does not exist.
          IDoAtm=111
          Differentiating once with respect to nuclear coordinates.
 Keep R1 ints in memory in symmetry-blocked form, NReq=7127942.
          There are    12 degrees of freedom in the 1st order CPHF.  IDoFFX=6 NUNeed=     0.
      6 vectors produced by pass  0 Test12= 2.60D-15 8.33D-09 XBig12= 8.03D-02 2.07D-01.
 AX will form     6 AO Fock derivatives at one time.
      6 vectors produced by pass  1 Test12= 2.60D-15 8.33D-09 XBig12= 1.56D-02 6.62D-02.
      6 vectors produced by pass  2 Test12= 2.60D-15 8.33D-09 XBig12= 5.17D-04 6.15D-03.
      6 vectors produced by pass  3 Test12= 2.60D-15 8.33D-09 XBig12= 1.81D-05 1.67D-03.
      6 vectors produced by pass  4 Test12= 2.60D-15 8.33D-09 XBig12= 9.75D-08 8.86D-05.
      6 vectors produced by pass  5 Test12= 2.60D-15 8.33D-09 XBig12= 3.92D-10 7.29D-06.
      3 vectors produced by pass  6 Test12= 2.60D-15 8.33D-09 XBig12= 4.34D-13 2.41D-07.
 InvSVY:  IOpt=1 It=  1 EMax= 2.22D-16
 Solved reduced A of dimension    39 with     6 vectors.
 End of Minotr F.D. properties file   721 does not exist.
 End of Minotr F.D. properties file   722 does not exist.
 End of Minotr F.D. properties file   788 does not exist.

 **********************************************************************

            Population analysis using the SCF density.

 **********************************************************************

 Orbital symmetries:
       Occupied  (A') (A') (A') (A') (A') (A") (A') (A') (A') (A')
                 (A") (A') (A")
       Virtual   (A') (A') (A') (A') (A") (A') (A') (A') (A") (A')
                 (A") (A') (A") (A') (A') (A') (A") (A') (A') (A")
                 (A') (A") (A') (A')
 The electronic state is 1-A'.
 Alpha  occ. eigenvalues -- -101.54202 -19.18139  -9.49392  -7.26755  -7.25083
 Alpha  occ. eigenvalues --   -7.25045  -1.04763  -0.79746  -0.53756  -0.41833
 Alpha  occ. eigenvalues --   -0.39990  -0.30381  -0.27273
 Alpha virt. eigenvalues --   -0.06163   0.07562   0.44310   0.55645   0.69891
 Alpha virt. eigenvalues --    0.69952   0.73284   0.76165   0.76216   0.84649
 Alpha virt. eigenvalues --    0.84982   0.95713   0.99749   1.07729   1.14638
 Alpha virt. eigenvalues --    1.23109   1.44661   1.66979   2.22260   2.62719
 Alpha virt. eigenvalues --    2.78379   2.94812   3.04037   3.66843
          Condensed to atoms (all electrons):
               1          2          3
     1  O    7.903976   0.108427   0.319512
     2  Cl   0.108427  16.783049  -0.020684
     3  H    0.319512  -0.020684   0.498465
 Mulliken charges:
               1
     1  O   -0.331915
     2  Cl   0.129207
     3  H    0.202708
 Sum of Mulliken charges =  -0.00000
 Mulliken charges with hydrogens summed into heavy atoms:
               1
     1  O   -0.129207
     2  Cl   0.129207
 APT charges:
               1
     1  O   -0.652360
     2  Cl   0.135055
     3  H    0.517305
 Sum of APT charges =  -0.00000
 APT charges with hydrogens summed into heavy atoms:
               1
     1  O   -0.135055
     2  Cl   0.135055
 Electronic spatial extent (au):  <R**2>=            103.8696
 Charge=             -0.0000 electrons
 Dipole moment (field-independent basis, Debye):
    X=             -1.5696    Y=              0.3012    Z=              0.0000  Tot=              1.5982
 Quadrupole moment (field-independent basis, Debye-Ang):
   XX=            -16.9335   YY=            -15.1403   ZZ=            -18.5210
   XY=             -2.8284   XZ=             -0.0000   YZ=             -0.0000
 Traceless Quadrupole moment (field-independent basis, Debye-Ang):
   XX=             -0.0686   YY=              1.7247   ZZ=             -1.6561
   XY=             -2.8284   XZ=             -0.0000   YZ=             -0.0000
 Octapole moment (field-independent basis, Debye-Ang**2):
  XXX=             -1.6472  YYY=              3.4011  ZZZ=              0.0000  XYY=             -4.2145
  XXY=              2.9282  XXZ=              0.0000  XZZ=             -0.2393  YZZ=              0.7119
  YYZ=              0.0000  XYZ=             -0.0000
 Hexadecapole moment (field-independent basis, Debye-Ang**3):
 XXXX=            -16.9073 YYYY=            -70.7877 ZZZZ=            -16.5240 XXXY=             -0.1857
 XXXZ=              0.0000 YYYX=             -5.4212 YYYZ=             -0.0000 ZZZX=              0.0000
 ZZZY=             -0.0000 XXYY=            -14.3923 XXZZ=             -5.7367 YYZZ=            -17.6254
 XXYZ=             -0.0000 YYXZ=             -0.0000 ZZXY=              0.4597
 N-N= 5.113783457288D+01 E-N=-1.375323817279D+03  KE= 5.344352899762D+02
 Symmetry A'   KE= 4.836851675394D+02
 Symmetry A"   KE= 5.075012243677D+01
  Exact polarizability:   0.000   0.000   0.000   0.000   0.000   0.000
 Approx polarizability:  13.140  -2.135  33.262  -0.000   0.000  10.210
 Calling FoFJK, ICntrl=    100147 FMM=F ISym2X=1 I1Cent= 0 IOpClX= 0 NMat=1 NMatS=1 NMatT=0.
 ***** Axes restored to original set *****
 -------------------------------------------------------------------
 Center     Atomic                   Forces (Hartrees/Bohr)
 Number     Number              X              Y              Z
 -------------------------------------------------------------------
      1        8          -0.006826371   -0.052751004   -0.005157142
      2       17           0.001925171    0.014677130    0.001475122
      3        1           0.004901200    0.038073875    0.003682020
 -------------------------------------------------------------------
 Cartesian Forces:  Max     0.052751004 RMS     0.022520024
 FormGI is forming the generalized inverse of G from B-inverse, IUseBI=4.

 GradGradGradGradGradGradGradGradGradGradGradGradGradGradGradGradGradGrad
 Berny optimization.
 Internal  Forces:  Max     0.046080576 RMS     0.031388815
 Search for a saddle point.
 Step number   1 out of a maximum of  100
 All quantities printed in internal units (Hartrees-Bohrs-Radians)
 Swapping is turned off.
 Second derivative matrix not updated -- analytic derivatives used.
 The second derivative matrix:
                          R1        R2        A1
           R1           0.25732
           R2          -0.01295   0.61122
           A1           0.03787   0.00181   0.14596
 ITU=  0
     Eigenvalues ---    0.13423   0.26857   0.61169
 Eigenvectors required to have negative eigenvalues:
                          A1        R1        R2
   1                   -0.95537   0.29517   0.01165
 RFO step:  Lambda0=1.481261166D-01 Lambda=-1.64577505D-03.
 Linear search not attempted -- option 19 set.
 Iteration  1 RMS(Cart)=  0.03555985 RMS(Int)=  0.00088812
 Iteration  2 RMS(Cart)=  0.00068000 RMS(Int)=  0.00000033
 Iteration  3 RMS(Cart)=  0.00000039 RMS(Int)=  0.00000000
 ClnCor:  largest displacement from symmetrization is 8.88D-16 for atom     2.
 Variable       Old X    -DE/DX   Delta X   Delta X   Delta X     New X
                                 (Linear)    (Quad)   (Total)
    R1        3.18206   0.00341   0.00000  -0.05190  -0.05190   3.13016
    R2        1.78502   0.02865   0.00000   0.04450   0.04450   1.82952
    A1        2.07757  -0.04608   0.00000   0.04515   0.04515   2.12272
         Item               Value     Threshold  Converged?
 Maximum Force            0.046081     0.000450     NO 
 RMS     Force            0.031389     0.000300     NO 
 Maximum Displacement     0.036816     0.001800     NO 
 RMS     Displacement     0.035711     0.001200     NO 
 Predicted change in Energy= 2.027552D-03
 GradGradGradGradGradGradGradGradGradGradGradGradGradGradGradGradGradGrad

                          Input orientation:                          
 ---------------------------------------------------------------------
 Center     Atomic      Atomic             Coordinates (Angstroms)
 Number     Number       Type             X           Y           Z
 ---------------------------------------------------------------------
      1          8           0        1.480605   -2.680096    4.125957
      2         17           0        2.379092   -2.564179    5.512673
      3          1           0        1.212742   -1.894545    3.627500
 ---------------------------------------------------------------------
                    Distance matrix (angstroms):
                    1          2          3
     1  O    0.000000
     2  Cl   1.656411   0.000000
     3  H    0.968142   2.315742   0.000000
 Stoichiometry    ClHO
 Framework group  CS[SG(ClHO)]
 Deg. of freedom     3
 Full point group                 CS      NOp   2
 Largest Abelian subgroup         CS      NOp   2
 Largest concise Abelian subgroup C1      NOp   1
                         Standard orientation:                         
 ---------------------------------------------------------------------
 Center     Atomic      Atomic             Coordinates (Angstroms)
 Number     Number       Type             X           Y           Z
 ---------------------------------------------------------------------
      1          8           0        0.031707    1.063514   -0.000000
      2         17           0        0.031707   -0.592897    0.000000
      3          1           0       -0.792683    1.571136   -0.000000
 ---------------------------------------------------------------------
 Rotational constants (GHZ):         820.5908117          15.3894638          15.1061610
 Standard basis: SVP (5D, 7F)
 There are    29 symmetry adapted cartesian basis functions of A'  symmetry.
 There are    10 symmetry adapted cartesian basis functions of A"  symmetry.
 There are    27 symmetry adapted basis functions of A'  symmetry.
 There are    10 symmetry adapted basis functions of A"  symmetry.
    37 basis functions,    69 primitive gaussians,    39 cartesian basis functions
    13 alpha electrons       13 beta electrons
       nuclear repulsion energy        51.7056616944 Hartrees.
 NAtoms=    3 NActive=    3 NUniq=    3 SFac= 1.00D+00 NAtFMM=   60 NAOKFM=F Big=F
 Integral buffers will be    131072 words long.
 Raffenetti 2 integral format.
 Two-electron integral symmetry is turned on.
 Nuclear repulsion after empirical dispersion term =       51.7040596429 Hartrees.
 One-electron integrals computed using PRISM.
 NBasis=    37 RedAO= T EigKep=  3.41D-02  NBF=    27    10
 NBsUse=    37 1.00D-06 EigRej= -1.00D+00 NBFU=    27    10
 Initial guess from the checkpoint file:  "/tmp/Gau-14950.chk"
 B after Tr=    -0.000000   -0.000000   -0.000000
         Rot=    1.000000   -0.000000    0.000000    0.000722 Ang=   0.08 deg.
 Initial guess orbital symmetries:
       Occupied  (A') (A') (A') (A') (A') (A") (A') (A') (A') (A')
                 (A") (A') (A")
       Virtual   (A') (A') (A') (A') (A") (A') (A') (A') (A") (A')
                 (A") (A') (A") (A') (A') (A') (A") (A') (A') (A")
                 (A') (A") (A') (A')
 ExpMin= 1.22D-01 ExpMax= 1.04D+04 ExpMxC= 1.57D+03 IAcc=2 IRadAn=         4 AccDes= 0.00D+00
 Harris functional with IExCor=  402 and IRadAn=       4 diagonalized for initial guess.
 HarFok:  IExCor=  402 AccDes= 0.00D+00 IRadAn=         4 IDoV= 1 UseB2=F ITyADJ=14
 ICtDFT=  3500011 ScaDFX=  1.000000  1.000000  1.000000  1.000000
 FoFCou: FMM=F IPFlag=           0 FMFlag=      100000 FMFlg1=           0
         NFxFlg=           0 DoJE=T BraDBF=F KetDBF=T FulRan=T
         wScrn=  0.000000 ICntrl=       500 IOpCl=  0 I1Cent=   200000004 NGrid=           0
         NMat0=    1 NMatS0=      1 NMatT0=    0 NMatD0=    1 NMtDS0=    0 NMtDT0=    0
 Petite list used in FoFCou.
 Keep R1 ints in memory in symmetry-blocked form, NReq=7153137.
 Requested convergence on RMS density matrix=1.00D-08 within 128 cycles.
 Requested convergence on MAX density matrix=1.00D-06.
 Requested convergence on             energy=1.00D-06.
 No special actions if energy rises.
 Integral accuracy reduced to 1.0D-05 until final iterations.
 Initial convergence to 1.0D-05 achieved.  Increase integral accuracy.
 SCF Done:  E(RB3LYP) =  -535.750355124     A.U. after   11 cycles
            NFock= 11  Conv=0.41D-08     -V/T= 2.0025
 Calling FoFJK, ICntrl=      2127 FMM=F ISym2X=1 I1Cent= 0 IOpClX= 0 NMat=1 NMatS=1 NMatT=0.
 ***** Axes restored to original set *****
 -------------------------------------------------------------------
 Center     Atomic                   Forces (Hartrees/Bohr)
 Number     Number              X              Y              Z
 -------------------------------------------------------------------
      1        8          -0.021265046   -0.035692546   -0.029403643
      2       17           0.009134033    0.017275347    0.012428223
      3        1           0.012131013    0.018417199    0.016975420
 -------------------------------------------------------------------
 Cartesian Forces:  Max     0.035692546 RMS     0.020820883

 GradGradGradGradGradGradGradGradGradGradGradGradGradGradGradGradGradGrad
 Berny optimization.
 FormGI is forming the generalized inverse of G from B-inverse, IUseBI=4.
 Internal  Forces:  Max     0.050648898 RMS     0.030810837
 Search for a saddle point.
 Step number   2 out of a maximum of  100
 All quantities printed in internal units (Hartrees-Bohrs-Radians)
 Swapping is turned off.
 Update second derivatives using D2CorX and points    1    2
 The second derivative matrix:
                          R1        R2        A1
           R1           0.27243
           R2          -0.00874   0.58035
           A1           0.03026  -0.01063   0.14646
 ITU=  0  0
     Eigenvalues ---    0.13941   0.27893   0.58091
 Eigenvectors required to have negative eigenvalues:
                          A1        R1        R2
   1                   -0.97518   0.22058  -0.01914
 RFO step:  Lambda0=1.572625244D-01 Lambda=-1.17314571D-04.
 Linear search not attempted -- option 19 set.
 Iteration  1 RMS(Cart)=  0.01963039 RMS(Int)=  0.00014952
 Iteration  2 RMS(Cart)=  0.00011002 RMS(Int)=  0.00000001
 Iteration  3 RMS(Cart)=  0.00000001 RMS(Int)=  0.00000000
 ClnCor:  largest displacement from symmetrization is 1.33D-15 for atom     3.
 Variable       Old X    -DE/DX   Delta X   Delta X   Delta X     New X
                                 (Linear)    (Quad)   (Total)
    R1        3.13016   0.01657   0.00000   0.01341   0.01341   3.14358
    R2        1.82952   0.00285   0.00000   0.00736   0.00736   1.83689
    A1        2.12272  -0.05065   0.00000   0.02280   0.02280   2.14552
         Item               Value     Threshold  Converged?
 Maximum Force            0.050649     0.000450     NO 
 RMS     Force            0.030811     0.000300     NO 
 Maximum Displacement     0.019784     0.001800     NO 
 RMS     Displacement     0.019626     0.001200     NO 
 Predicted change in Energy= 9.965051D-04
 GradGradGradGradGradGradGradGradGradGradGradGradGradGradGradGradGradGrad

                          Input orientation:                          
 ---------------------------------------------------------------------
 Center     Atomic      Atomic             Coordinates (Angstroms)
 Number     Number       Type             X           Y           Z
 ---------------------------------------------------------------------
      1          8           0        1.482115   -2.674473    4.127726
      2         17           0        2.384327   -2.569494    5.521374
      3          1           0        1.205996   -1.894853    3.617031
 ---------------------------------------------------------------------
                    Distance matrix (angstroms):
                    1          2          3
     1  O    0.000000
     2  Cl   1.663509   0.000000
     3  H    0.972038   2.338830   0.000000
 Stoichiometry    ClHO
 Framework group  CS[SG(ClHO)]
 Deg. of freedom     3
 Full point group                 CS      NOp   2
 Largest Abelian subgroup         CS      NOp   2
 Largest concise Abelian subgroup C1      NOp   1
                         Standard orientation:                         
 ---------------------------------------------------------------------
 Center     Atomic      Atomic             Coordinates (Angstroms)
 Number     Number       Type             X           Y           Z
 ---------------------------------------------------------------------
      1          8           0        0.031380    1.067356    0.000000
      2         17           0        0.031380   -0.596153   -0.000000
      3          1           0       -0.784493    1.595759    0.000000
 ---------------------------------------------------------------------
 Rotational constants (GHZ):         839.3445351          15.2305675          14.9591224
 Standard basis: SVP (5D, 7F)
 There are    29 symmetry adapted cartesian basis functions of A'  symmetry.
 There are    10 symmetry adapted cartesian basis functions of A"  symmetry.
 There are    27 symmetry adapted basis functions of A'  symmetry.
 There are    10 symmetry adapted basis functions of A"  symmetry.
    37 basis functions,    69 primitive gaussians,    39 cartesian basis functions
    13 alpha electrons       13 beta electrons
       nuclear repulsion energy        51.4643865631 Hartrees.
 NAtoms=    3 NActive=    3 NUniq=    3 SFac= 1.00D+00 NAtFMM=   60 NAOKFM=F Big=F
 Integral buffers will be    131072 words long.
 Raffenetti 2 integral format.
 Two-electron integral symmetry is turned on.
 Nuclear repulsion after empirical dispersion term =       51.4627871455 Hartrees.
 One-electron integrals computed using PRISM.
 NBasis=    37 RedAO= T EigKep=  3.48D-02  NBF=    27    10
 NBsUse=    37 1.00D-06 EigRej= -1.00D+00 NBFU=    27    10
 Initial guess from the checkpoint file:  "/tmp/Gau-14950.chk"
 B after Tr=    -0.000000    0.000000    0.000000
         Rot=    1.000000   -0.000000    0.000000    0.000923 Ang=   0.11 deg.
 Initial guess orbital symmetries:
       Occupied  (A') (A') (A') (A') (A') (A") (A') (A') (A') (A')
                 (A") (A') (A")
       Virtual   (A') (A') (A') (A') (A') (A") (A') (A') (A") (A')
                 (A") (A') (A") (A') (A') (A') (A") (A') (A') (A")
                 (A') (A") (A') (A')
 Keep R1 ints in memory in symmetry-blocked form, NReq=7153137.
 Requested convergence on RMS density matrix=1.00D-08 within 128 cycles.
 Requested convergence on MAX density matrix=1.00D-06.
 Requested convergence on             energy=1.00D-06.
 No special actions if energy rises.
 SCF Done:  E(RB3LYP) =  -535.749355976     A.U. after    9 cycles
            NFock=  9  Conv=0.24D-08     -V/T= 2.0025
 Calling FoFJK, ICntrl=      2127 FMM=F ISym2X=1 I1Cent= 0 IOpClX= 0 NMat=1 NMatS=1 NMatT=0.
 ***** Axes restored to original set *****
 -------------------------------------------------------------------
 Center     Atomic                   Forces (Hartrees/Bohr)
 Number     Number              X              Y              Z
 -------------------------------------------------------------------
      1        8          -0.020574050   -0.034903250   -0.028409768
      2       17           0.006668335    0.017973766    0.008517285
      3        1           0.013905714    0.016929484    0.019892483
 -------------------------------------------------------------------
 Cartesian Forces:  Max     0.034903250 RMS     0.020451562

 GradGradGradGradGradGradGradGradGradGradGradGradGradGradGradGradGradGrad
 Berny optimization.
 FormGI is forming the generalized inverse of G from B-inverse, IUseBI=4.
 Internal  Forces:  Max     0.054336529 RMS     0.032116569
 Search for a saddle point.
 Step number   3 out of a maximum of  100
 All quantities printed in internal units (Hartrees-Bohrs-Radians)
 Swapping is turned off.
 Update second derivatives using D2CorX and points    1    2    3
 The second derivative matrix:
                          R1        R2        A1
           R1           0.28394
           R2          -0.00866   0.57437
           A1           0.04109  -0.01938   0.14382
 ITU=  0  0  0
     Eigenvalues ---    0.13205   0.29446   0.57562
 Eigenvectors required to have negative eigenvalues:
                          A1        R1        R2
   1                   -0.96517   0.25895  -0.03722
 RFO step:  Lambda0=1.523144328D-01 Lambda=-2.51233437D-05.
 Linear search not attempted -- option 19 set.
 Iteration  1 RMS(Cart)=  0.00499993 RMS(Int)=  0.00001381
 Iteration  2 RMS(Cart)=  0.00001065 RMS(Int)=  0.00000000
 Iteration  3 RMS(Cart)=  0.00000000 RMS(Int)=  0.00000000
 ClnCor:  largest displacement from symmetrization is 1.54D-15 for atom     3.
 Variable       Old X    -DE/DX   Delta X   Delta X   Delta X     New X
                                 (Linear)    (Quad)   (Total)
    R1        3.14358   0.01189   0.00000  -0.01072  -0.01072   3.13286
    R2        1.83689  -0.00082   0.00000   0.00229   0.00229   1.83918
    A1        2.14552  -0.05434   0.00000   0.00630   0.00630   2.15182
         Item               Value     Threshold  Converged?
 Maximum Force            0.054337     0.000450     NO 
 RMS     Force            0.032117     0.000300     NO 
 Maximum Displacement     0.005335     0.001800     NO 
 RMS     Displacement     0.005001     0.001200     NO 
 Predicted change in Energy= 4.893210D-04
 GradGradGradGradGradGradGradGradGradGradGradGradGradGradGradGradGradGrad

                          Input orientation:                          
 ---------------------------------------------------------------------
 Center     Atomic      Atomic             Coordinates (Angstroms)
 Number     Number       Type             X           Y           Z
 ---------------------------------------------------------------------
      1          8           0        1.484025   -2.673025    4.130549
      2         17           0        2.383134   -2.570414    5.519612
      3          1           0        1.205279   -1.895381    3.615970
 ---------------------------------------------------------------------
                    Distance matrix (angstroms):
                    1          2          3
     1  O    0.000000
     2  Cl   1.657837   0.000000
     3  H    0.973253   2.338133   0.000000
 Stoichiometry    ClHO
 Framework group  CS[SG(ClHO)]
 Deg. of freedom     3
 Full point group                 CS      NOp   2
 Largest Abelian subgroup         CS      NOp   2
 Largest concise Abelian subgroup C1      NOp   1
                         Standard orientation:                         
 ---------------------------------------------------------------------
 Center     Atomic      Atomic             Coordinates (Angstroms)
 Number     Number       Type             X           Y           Z
 ---------------------------------------------------------------------
      1          8           0        0.031290    1.063424    0.000000
      2         17           0        0.031290   -0.594413   -0.000000
      3          1           0       -0.782254    1.597621    0.000000
 ---------------------------------------------------------------------
 Rotational constants (GHZ):         844.8115812          15.3230821          15.0501052
 Standard basis: SVP (5D, 7F)
 There are    29 symmetry adapted cartesian basis functions of A'  symmetry.
 There are    10 symmetry adapted cartesian basis functions of A"  symmetry.
 There are    27 symmetry adapted basis functions of A'  symmetry.
 There are    10 symmetry adapted basis functions of A"  symmetry.
    37 basis functions,    69 primitive gaussians,    39 cartesian basis functions
    13 alpha electrons       13 beta electrons
       nuclear repulsion energy        51.6081253908 Hartrees.
 NAtoms=    3 NActive=    3 NUniq=    3 SFac= 1.00D+00 NAtFMM=   60 NAOKFM=F Big=F
 Integral buffers will be    131072 words long.
 Raffenetti 2 integral format.
 Two-electron integral symmetry is turned on.
 Nuclear repulsion after empirical dispersion term =       51.6065257685 Hartrees.
 One-electron integrals computed using PRISM.
 NBasis=    37 RedAO= T EigKep=  3.45D-02  NBF=    27    10
 NBsUse=    37 1.00D-06 EigRej= -1.00D+00 NBFU=    27    10
 Initial guess from the checkpoint file:  "/tmp/Gau-14950.chk"
 B after Tr=    -0.000000   -0.000000    0.000000
         Rot=    1.000000   -0.000000    0.000000    0.000143 Ang=   0.02 deg.
 Initial guess orbital symmetries:
       Occupied  (A') (A') (A') (A') (A') (A") (A') (A') (A') (A')
                 (A") (A') (A")
       Virtual   (A') (A') (A') (A') (A') (A") (A') (A') (A") (A')
                 (A") (A') (A") (A') (A') (A') (A") (A') (A') (A")
                 (A') (A") (A') (A')
 Keep R1 ints in memory in symmetry-blocked form, NReq=7153137.
 Requested convergence on RMS density matrix=1.00D-08 within 128 cycles.
 Requested convergence on MAX density matrix=1.00D-06.
 Requested convergence on             energy=1.00D-06.
 No special actions if energy rises.
 SCF Done:  E(RB3LYP) =  -535.748866274     A.U. after    8 cycles
            NFock=  8  Conv=0.63D-08     -V/T= 2.0025
 Calling FoFJK, ICntrl=      2127 FMM=F ISym2X=1 I1Cent= 0 IOpClX= 0 NMat=1 NMatS=1 NMatT=0.
 ***** Axes restored to original set *****
 -------------------------------------------------------------------
 Center     Atomic                   Forces (Hartrees/Bohr)
 Number     Number              X              Y              Z
 -------------------------------------------------------------------
      1        8          -0.022572807   -0.034473848   -0.031565894
      2       17           0.008238260    0.018340483    0.010923265
      3        1           0.014334548    0.016133366    0.020642629
 -------------------------------------------------------------------
 Cartesian Forces:  Max     0.034473848 RMS     0.021369309

 GradGradGradGradGradGradGradGradGradGradGradGradGradGradGradGradGradGrad
 Berny optimization.
 FormGI is forming the generalized inverse of G from B-inverse, IUseBI=4.
 Internal  Forces:  Max     0.054786816 RMS     0.032781336
 Search for a saddle point.
 Step number   4 out of a maximum of  100
 All quantities printed in internal units (Hartrees-Bohrs-Radians)
 Swapping is turned off.
 Update second derivatives using D2CorX and points    1    2    3    4
 The second derivative matrix:
                          R1        R2        A1
           R1           0.28812
           R2          -0.01002   0.57464
           A1           0.03849  -0.01909   0.14397
 ITU=  0  0  0  0
     Eigenvalues ---    0.13375   0.29701   0.57597
 Eigenvectors required to have negative eigenvalues:
                          A1        R1        R2
   1                   -0.97020   0.23954  -0.03656
 RFO step:  Lambda0=1.545949943D-01 Lambda=-4.77939135D-06.
 Linear search not attempted -- option 19 set.
 Iteration  1 RMS(Cart)=  0.00390083 RMS(Int)=  0.00000613
 Iteration  2 RMS(Cart)=  0.00000478 RMS(Int)=  0.00000000
 Iteration  3 RMS(Cart)=  0.00000000 RMS(Int)=  0.00000000
 ClnCor:  largest displacement from symmetrization is 2.95D-15 for atom     3.
 Variable       Old X    -DE/DX   Delta X   Delta X   Delta X     New X
                                 (Linear)    (Quad)   (Total)
    R1        3.13286   0.01476   0.00000   0.00293   0.00293   3.13579
    R2        1.83918  -0.00213   0.00000   0.00015   0.00015   1.83933
    A1        2.15182  -0.05479   0.00000   0.00485   0.00485   2.15667
         Item               Value     Threshold  Converged?
 Maximum Force            0.054787     0.000450     NO 
 RMS     Force            0.032781     0.000300     NO 
 Maximum Displacement     0.003618     0.001800     NO 
 RMS     Displacement     0.003900     0.001200     NO 
 Predicted change in Energy= 2.261310D-04
 GradGradGradGradGradGradGradGradGradGradGradGradGradGradGradGradGradGrad

                          Input orientation:                          
 ---------------------------------------------------------------------
 Center     Atomic      Atomic             Coordinates (Angstroms)
 Number     Number       Type             X           Y           Z
 ---------------------------------------------------------------------
      1          8           0        1.484251   -2.671566    4.130748
      2         17           0        2.384164   -2.571498    5.521327
      3          1           0        1.204024   -1.895757    3.614055
 ---------------------------------------------------------------------
                    Distance matrix (angstroms):
                    1          2          3
     1  O    0.000000
     2  Cl   1.659388   0.000000
     3  H    0.973334   2.342443   0.000000
 Stoichiometry    ClHO
 Framework group  CS[SG(ClHO)]
 Deg. of freedom     3
 Full point group                 CS      NOp   2
 Largest Abelian subgroup         CS      NOp   2
 Largest concise Abelian subgroup C1      NOp   1
                         Standard orientation:                         
 ---------------------------------------------------------------------
 Center     Atomic      Atomic             Coordinates (Angstroms)
 Number     Number       Type             X           Y           Z
 ---------------------------------------------------------------------
      1          8           0        0.031193    1.064285    0.000000
      2         17           0        0.031193   -0.595103   -0.000000
      3          1           0       -0.779820    1.602464    0.000000
 ---------------------------------------------------------------------
 Rotational constants (GHZ):         850.3839191          15.2892386          15.0192050
 Standard basis: SVP (5D, 7F)
 There are    29 symmetry adapted cartesian basis functions of A'  symmetry.
 There are    10 symmetry adapted cartesian basis functions of A"  symmetry.
 There are    27 symmetry adapted basis functions of A'  symmetry.
 There are    10 symmetry adapted basis functions of A"  symmetry.
    37 basis functions,    69 primitive gaussians,    39 cartesian basis functions
    13 alpha electrons       13 beta electrons
       nuclear repulsion energy        51.5601182600 Hartrees.
 NAtoms=    3 NActive=    3 NUniq=    3 SFac= 1.00D+00 NAtFMM=   60 NAOKFM=F Big=F
 Integral buffers will be    131072 words long.
 Raffenetti 2 integral format.
 Two-electron integral symmetry is turned on.
 Nuclear repulsion after empirical dispersion term =       51.5585191550 Hartrees.
 One-electron integrals computed using PRISM.
 NBasis=    37 RedAO= T EigKep=  3.46D-02  NBF=    27    10
 NBsUse=    37 1.00D-06 EigRej= -1.00D+00 NBFU=    27    10
 Initial guess from the checkpoint file:  "/tmp/Gau-14950.chk"
 B after Tr=     0.000000    0.000000   -0.000000
         Rot=    1.000000    0.000000   -0.000000    0.000219 Ang=   0.03 deg.
 Initial guess orbital symmetries:
       Occupied  (A') (A') (A') (A') (A') (A") (A') (A') (A') (A')
                 (A") (A') (A")
       Virtual   (A') (A') (A') (A') (A') (A") (A') (A') (A") (A')
                 (A") (A') (A") (A') (A') (A') (A") (A') (A') (A")
                 (A') (A") (A') (A')
 Keep R1 ints in memory in symmetry-blocked form, NReq=7153137.
 Requested convergence on RMS density matrix=1.00D-08 within 128 cycles.
 Requested convergence on MAX density matrix=1.00D-06.
 Requested convergence on             energy=1.00D-06.
 No special actions if energy rises.
 SCF Done:  E(RB3LYP) =  -535.748640244     A.U. after    8 cycles
            NFock=  8  Conv=0.27D-08     -V/T= 2.0025
 Calling FoFJK, ICntrl=      2127 FMM=F ISym2X=1 I1Cent= 0 IOpClX= 0 NMat=1 NMatS=1 NMatT=0.
 ***** Axes restored to original set *****
 -------------------------------------------------------------------
 Center     Atomic                   Forces (Hartrees/Bohr)
 Number     Number              X              Y              Z
 -------------------------------------------------------------------
      1        8          -0.022212502   -0.034893284   -0.030961489
      2       17           0.007695942    0.018481513    0.010064378
      3        1           0.014516560    0.016411771    0.020897111
 -------------------------------------------------------------------
 Cartesian Forces:  Max     0.034893284 RMS     0.021313538

 GradGradGradGradGradGradGradGradGradGradGradGradGradGradGradGradGradGrad
 Berny optimization.
 FormGI is forming the generalized inverse of G from B-inverse, IUseBI=4.
 Internal  Forces:  Max     0.055546159 RMS     0.033057892
 Search for a saddle point.
 Step number   5 out of a maximum of  100
 All quantities printed in internal units (Hartrees-Bohrs-Radians)
 Swapping is turned off.
 Update second derivatives using D2CorX and points    2    3    4    5
 The second derivative matrix:
                          R1        R2        A1
           R1           0.28924
           R2          -0.00571   0.57795
           A1           0.03850  -0.00195   0.13344
 ITU=  0  0  0  0
     Eigenvalues ---    0.12444   0.29811   0.57808
 Eigenvectors required to have negative eigenvalues:
                          A1        R1        R2
   1                   -0.97379   0.22744  -0.00133
 RFO step:  Lambda0=1.467481796D-01 Lambda=-9.41760919D-06.
 Linear search not attempted -- option 19 set.
 Iteration  1 RMS(Cart)=  0.00319204 RMS(Int)=  0.00000627
 Iteration  2 RMS(Cart)=  0.00000694 RMS(Int)=  0.00000000
 Iteration  3 RMS(Cart)=  0.00000000 RMS(Int)=  0.00000000
 ClnCor:  largest displacement from symmetrization is 3.50D-15 for atom     3.
 Variable       Old X    -DE/DX   Delta X   Delta X   Delta X     New X
                                 (Linear)    (Quad)   (Total)
    R1        3.13579   0.01372   0.00000   0.00132   0.00132   3.13711
    R2        1.83933  -0.00219   0.00000  -0.00363  -0.00363   1.83570
    A1        2.15667  -0.05555   0.00000   0.00477   0.00477   2.16143
         Item               Value     Threshold  Converged?
 Maximum Force            0.055546     0.000450     NO 
 RMS     Force            0.033058     0.000300     NO 
 Maximum Displacement     0.003906     0.001800     NO 
 RMS     Displacement     0.003189     0.001200     NO 
 Predicted change in Energy= 2.447621D-04
 GradGradGradGradGradGradGradGradGradGradGradGradGradGradGradGradGradGrad

                          Input orientation:                          
 ---------------------------------------------------------------------
 Center     Atomic      Atomic             Coordinates (Angstroms)
 Number     Number       Type             X           Y           Z
 ---------------------------------------------------------------------
      1          8           0        1.484397   -2.669499    4.130762
      2         17           0        2.384645   -2.572360    5.522166
      3          1           0        1.203397   -1.896961    3.613203
 ---------------------------------------------------------------------
                    Distance matrix (angstroms):
                    1          2          3
     1  O    0.000000
     2  Cl   1.660086   0.000000
     3  H    0.971413   2.344280   0.000000
 Stoichiometry    ClHO
 Framework group  CS[SG(ClHO)]
 Deg. of freedom     3
 Full point group                 CS      NOp   2
 Largest Abelian subgroup         CS      NOp   2
 Largest concise Abelian subgroup C1      NOp   1
                         Standard orientation:                         
 ---------------------------------------------------------------------
 Center     Atomic      Atomic             Coordinates (Angstroms)
 Number     Number       Type             X           Y           Z
 ---------------------------------------------------------------------
      1          8           0        0.031032    1.064634   -0.000000
      2         17           0        0.031032   -0.595452    0.000000
      3          1           0       -0.775809    1.605606   -0.000000
 ---------------------------------------------------------------------
 Rotational constants (GHZ):         859.4088447          15.2726647          15.0059913
 Standard basis: SVP (5D, 7F)
 There are    29 symmetry adapted cartesian basis functions of A'  symmetry.
 There are    10 symmetry adapted cartesian basis functions of A"  symmetry.
 There are    27 symmetry adapted basis functions of A'  symmetry.
 There are    10 symmetry adapted basis functions of A"  symmetry.
    37 basis functions,    69 primitive gaussians,    39 cartesian basis functions
    13 alpha electrons       13 beta electrons
       nuclear repulsion energy        51.5474622607 Hartrees.
 NAtoms=    3 NActive=    3 NUniq=    3 SFac= 1.00D+00 NAtFMM=   60 NAOKFM=F Big=F
 Integral buffers will be    131072 words long.
 Raffenetti 2 integral format.
 Two-electron integral symmetry is turned on.
 Nuclear repulsion after empirical dispersion term =       51.5458633999 Hartrees.
 One-electron integrals computed using PRISM.
 NBasis=    37 RedAO= T EigKep=  3.47D-02  NBF=    27    10
 NBsUse=    37 1.00D-06 EigRej= -1.00D+00 NBFU=    27    10
 Initial guess from the checkpoint file:  "/tmp/Gau-14950.chk"
 B after Tr=    -0.000000    0.000000    0.000000
         Rot=    1.000000    0.000000   -0.000000    0.000252 Ang=   0.03 deg.
 Initial guess orbital symmetries:
       Occupied  (A') (A') (A') (A') (A') (A") (A') (A') (A') (A')
                 (A") (A') (A")
       Virtual   (A') (A') (A') (A') (A') (A") (A') (A') (A") (A')
                 (A") (A') (A") (A') (A') (A') (A") (A') (A') (A")
                 (A') (A") (A') (A')
 Keep R1 ints in memory in symmetry-blocked form, NReq=7153137.
 Requested convergence on RMS density matrix=1.00D-08 within 128 cycles.
 Requested convergence on MAX density matrix=1.00D-06.
 Requested convergence on             energy=1.00D-06.
 No special actions if energy rises.
 SCF Done:  E(RB3LYP) =  -535.748396105     A.U. after    8 cycles
            NFock=  8  Conv=0.27D-08     -V/T= 2.0025
 Calling FoFJK, ICntrl=      2127 FMM=F ISym2X=1 I1Cent= 0 IOpClX= 0 NMat=1 NMatS=1 NMatT=0.
 ***** Axes restored to original set *****
 -------------------------------------------------------------------
 Center     Atomic                   Forces (Hartrees/Bohr)
 Number     Number              X              Y              Z
 -------------------------------------------------------------------
      1        8          -0.021550949   -0.036807136   -0.029733153
      2       17           0.007387560    0.018626770    0.009569239
      3        1           0.014163389    0.018180366    0.020163914
 -------------------------------------------------------------------
 Cartesian Forces:  Max     0.036807136 RMS     0.021432277

 GradGradGradGradGradGradGradGradGradGradGradGradGradGradGradGradGradGrad
 Berny optimization.
 FormGI is forming the generalized inverse of G from B-inverse, IUseBI=4.
 Internal  Forces:  Max     0.056209374 RMS     0.033325075
 Search for a saddle point.
 Step number   6 out of a maximum of  100
 All quantities printed in internal units (Hartrees-Bohrs-Radians)
 Swapping is turned off.
 Second derivative matrix not updated -- analytic derivatives used.
 The second derivative matrix:
                          R1        R2        A1
           R1           0.28924
           R2          -0.00571   0.57795
           A1           0.03850  -0.00195   0.13344
 ITU=  0  0  0  0
     Eigenvalues ---    0.12444   0.29811   0.57808
 Eigenvectors required to have negative eigenvalues:
                          A1        R1        R2
   1                   -0.97379   0.22744  -0.00133
 RFO step:  Lambda0=1.470912868D-01 Lambda=-1.61852426D-07.
 Linear search not attempted -- option 19 set.
 Iteration  1 RMS(Cart)=  0.00033782 RMS(Int)=  0.00000009
 Iteration  2 RMS(Cart)=  0.00000010 RMS(Int)=  0.00000000
 ClnCor:  largest displacement from symmetrization is 2.39D-15 for atom     3.
 Variable       Old X    -DE/DX   Delta X   Delta X   Delta X     New X
                                 (Linear)    (Quad)   (Total)
    R1        3.13711   0.01312   0.00000  -0.00017  -0.00017   3.13694
    R2        1.83570  -0.00038   0.00000  -0.00053  -0.00053   1.83518
    A1        2.16143  -0.05621   0.00000   0.00051   0.00051   2.16194
         Item               Value     Threshold  Converged?
 Maximum Force            0.056209     0.000450     NO 
 RMS     Force            0.033325     0.000300     NO 
 Maximum Displacement     0.000456     0.001800     YES
 RMS     Displacement     0.000338     0.001200     YES
 Predicted change in Energy= 3.057839D-05
 GradGradGradGradGradGradGradGradGradGradGradGradGradGradGradGradGradGrad

                          Input orientation:                          
 ---------------------------------------------------------------------
 Center     Atomic      Atomic             Coordinates (Angstroms)
 Number     Number       Type             X           Y           Z
 ---------------------------------------------------------------------
      1          8           0        1.484435   -2.669258    4.130797
      2         17           0        2.384630   -2.572434    5.522149
      3          1           0        1.203374   -1.897129    3.613185
 ---------------------------------------------------------------------
                    Distance matrix (angstroms):
                    1          2          3
     1  O    0.000000
     2  Cl   1.659996   0.000000
     3  H    0.971134   2.344259   0.000000
 Stoichiometry    ClHO
 Framework group  CS[SG(ClHO)]
 Deg. of freedom     3
 Full point group                 CS      NOp   2
 Largest Abelian subgroup         CS      NOp   2
 Largest concise Abelian subgroup C1      NOp   1
                         Standard orientation:                         
 ---------------------------------------------------------------------
 Center     Atomic      Atomic             Coordinates (Angstroms)
 Number     Number       Type             X           Y           Z
 ---------------------------------------------------------------------
      1          8           0        0.031013    1.064566   -0.000000
      2         17           0        0.031013   -0.595430    0.000000
      3          1           0       -0.775322    1.605790   -0.000000
 ---------------------------------------------------------------------
 Rotational constants (GHZ):         860.5105660          15.2739085          15.0075276
 Standard basis: SVP (5D, 7F)
 There are    29 symmetry adapted cartesian basis functions of A'  symmetry.
 There are    10 symmetry adapted cartesian basis functions of A"  symmetry.
 There are    27 symmetry adapted basis functions of A'  symmetry.
 There are    10 symmetry adapted basis functions of A"  symmetry.
    37 basis functions,    69 primitive gaussians,    39 cartesian basis functions
    13 alpha electrons       13 beta electrons
       nuclear repulsion energy        51.5510978095 Hartrees.
 NAtoms=    3 NActive=    3 NUniq=    3 SFac= 1.00D+00 NAtFMM=   60 NAOKFM=F Big=F
 Integral buffers will be    131072 words long.
 Raffenetti 2 integral format.
 Two-electron integral symmetry is turned on.
 Nuclear repulsion after empirical dispersion term =       51.5494989474 Hartrees.
 One-electron integrals computed using PRISM.
 NBasis=    37 RedAO= T EigKep=  3.47D-02  NBF=    27    10
 NBsUse=    37 1.00D-06 EigRej= -1.00D+00 NBFU=    27    10
 Initial guess from the checkpoint file:  "/tmp/Gau-14950.chk"
 B after Tr=    -0.000000   -0.000000   -0.000000
         Rot=    1.000000    0.000000   -0.000000    0.000026 Ang=   0.00 deg.
 Initial guess orbital symmetries:
       Occupied  (A') (A') (A') (A') (A') (A") (A') (A') (A') (A')
                 (A") (A') (A")
       Virtual   (A') (A') (A') (A') (A') (A") (A') (A') (A") (A')
                 (A") (A') (A") (A') (A') (A') (A") (A') (A') (A")
                 (A') (A") (A') (A')
 Keep R1 ints in memory in symmetry-blocked form, NReq=7153137.
 Requested convergence on RMS density matrix=1.00D-08 within 128 cycles.
 Requested convergence on MAX density matrix=1.00D-06.
 Requested convergence on             energy=1.00D-06.
 No special actions if energy rises.
 SCF Done:  E(RB3LYP) =  -535.748365540     A.U. after    6 cycles
            NFock=  6  Conv=0.90D-08     -V/T= 2.0025
 Calling FoFJK, ICntrl=      2127 FMM=F ISym2X=1 I1Cent= 0 IOpClX= 0 NMat=1 NMatS=1 NMatT=0.
 ***** Axes restored to original set *****
 -------------------------------------------------------------------
 Center     Atomic                   Forces (Hartrees/Bohr)
 Number     Number              X              Y              Z
 -------------------------------------------------------------------
      1        8          -0.021505528   -0.037065548   -0.029635646
      2       17           0.007402156    0.018645144    0.009590056
      3        1           0.014103372    0.018420404    0.020045591
 -------------------------------------------------------------------
 Cartesian Forces:  Max     0.037065548 RMS     0.021471062

 GradGradGradGradGradGradGradGradGradGradGradGradGradGradGradGradGradGrad
 Berny optimization.
 FormGI is forming the generalized inverse of G from B-inverse, IUseBI=4.
 Internal  Forces:  Max     0.056266979 RMS     0.033359834
 Search for a saddle point.
 Step number   7 out of a maximum of  100
 All quantities printed in internal units (Hartrees-Bohrs-Radians)
 Swapping is turned off.
 Update second derivatives using D2CorX and points    4    5    7
 The second derivative matrix:
                          R1        R2        A1
           R1           0.29308
           R2           0.00032   0.53161
           A1           0.04677   0.02629   0.14714
 ITU=  0  0  0  0
     Eigenvalues ---    0.13185   0.30653   0.53345
 Eigenvectors required to have negative eigenvalues:
                          A1        R1        R2
   1                    0.95854  -0.27795  -0.06281
 RFO step:  Lambda0=1.534572538D-01 Lambda=-5.55824824D-05.
 Linear search not attempted -- option 19 set.
 Iteration  1 RMS(Cart)=  0.00726533 RMS(Int)=  0.00002723
 Iteration  2 RMS(Cart)=  0.00003166 RMS(Int)=  0.00000000
 Iteration  3 RMS(Cart)=  0.00000000 RMS(Int)=  0.00000000
 ClnCor:  largest displacement from symmetrization is 8.88D-16 for atom     3.
 Variable       Old X    -DE/DX   Delta X   Delta X   Delta X     New X
                                 (Linear)    (Quad)   (Total)
    R1        3.13694   0.01314   0.00000  -0.01259  -0.01259   3.12435
    R2        1.83518  -0.00012   0.00000  -0.00762  -0.00762   1.82756
    A1        2.16194  -0.05627   0.00000   0.00832   0.00832   2.17026
         Item               Value     Threshold  Converged?
 Maximum Force            0.056267     0.000450     NO 
 RMS     Force            0.033360     0.000300     NO 
 Maximum Displacement     0.007036     0.001800     NO 
 RMS     Displacement     0.007270     0.001200     NO 
 Predicted change in Energy= 6.697657D-04
 GradGradGradGradGradGradGradGradGradGradGradGradGradGradGradGradGradGrad

                          Input orientation:                          
 ---------------------------------------------------------------------
 Center     Atomic      Atomic             Coordinates (Angstroms)
 Number     Number       Type             X           Y           Z
 ---------------------------------------------------------------------
      1          8           0        1.486126   -2.665534    4.133043
      2         17           0        2.382641   -2.573288    5.519142
      3          1           0        1.203672   -1.899998    3.613947
 ---------------------------------------------------------------------
                    Distance matrix (angstroms):
                    1          2          3
     1  O    0.000000
     2  Cl   1.653336   0.000000
     3  H    0.967102   2.339456   0.000000
 Stoichiometry    ClHO
 Framework group  CS[SG(ClHO)]
 Deg. of freedom     3
 Full point group                 CS      NOp   2
 Largest Abelian subgroup         CS      NOp   2
 Largest concise Abelian subgroup C1      NOp   1
                         Standard orientation:                         
 ---------------------------------------------------------------------
 Center     Atomic      Atomic             Coordinates (Angstroms)
 Number     Number       Type             X           Y           Z
 ---------------------------------------------------------------------
      1          8           0        0.030711    1.060041    0.000000
      2         17           0        0.030711   -0.593295   -0.000000
      3          1           0       -0.767766    1.605680    0.000000
 ---------------------------------------------------------------------
 Rotational constants (GHZ):         878.1096069          15.3871038          15.1221191
 Standard basis: SVP (5D, 7F)
 There are    29 symmetry adapted cartesian basis functions of A'  symmetry.
 There are    10 symmetry adapted cartesian basis functions of A"  symmetry.
 There are    27 symmetry adapted basis functions of A'  symmetry.
 There are    10 symmetry adapted basis functions of A"  symmetry.
    37 basis functions,    69 primitive gaussians,    39 cartesian basis functions
    13 alpha electrons       13 beta electrons
       nuclear repulsion energy        51.7518016691 Hartrees.
 NAtoms=    3 NActive=    3 NUniq=    3 SFac= 1.00D+00 NAtFMM=   60 NAOKFM=F Big=F
 Integral buffers will be    131072 words long.
 Raffenetti 2 integral format.
 Two-electron integral symmetry is turned on.
 Nuclear repulsion after empirical dispersion term =       51.7502021713 Hartrees.
 One-electron integrals computed using PRISM.
 NBasis=    37 RedAO= T EigKep=  3.43D-02  NBF=    27    10
 NBsUse=    37 1.00D-06 EigRej= -1.00D+00 NBFU=    27    10
 Initial guess from the checkpoint file:  "/tmp/Gau-14950.chk"
 B after Tr=     0.000000    0.000000    0.000000
         Rot=    1.000000    0.000000   -0.000000    0.000344 Ang=   0.04 deg.
 Initial guess orbital symmetries:
       Occupied  (A') (A') (A') (A') (A') (A") (A') (A') (A') (A')
                 (A") (A') (A")
       Virtual   (A') (A') (A') (A') (A') (A") (A') (A') (A") (A')
                 (A") (A') (A") (A') (A') (A') (A") (A') (A') (A")
                 (A') (A") (A') (A')
 Keep R1 ints in memory in symmetry-blocked form, NReq=7153137.
 Requested convergence on RMS density matrix=1.00D-08 within 128 cycles.
 Requested convergence on MAX density matrix=1.00D-06.
 Requested convergence on             energy=1.00D-06.
 No special actions if energy rises.
 SCF Done:  E(RB3LYP) =  -535.747696147     A.U. after    8 cycles
            NFock=  8  Conv=0.60D-08     -V/T= 2.0025
 Calling FoFJK, ICntrl=      2127 FMM=F ISym2X=1 I1Cent= 0 IOpClX= 0 NMat=1 NMatS=1 NMatT=0.
 ***** Axes restored to original set *****
 -------------------------------------------------------------------
 Center     Atomic                   Forces (Hartrees/Bohr)
 Number     Number              X              Y              Z
 -------------------------------------------------------------------
      1        8          -0.022375653   -0.040803749   -0.030602602
      2       17           0.009202953    0.019049809    0.012351516
      3        1           0.013172700    0.021753940    0.018251086
 -------------------------------------------------------------------
 Cartesian Forces:  Max     0.040803749 RMS     0.022808723

 GradGradGradGradGradGradGradGradGradGradGradGradGradGradGradGradGradGrad
 Berny optimization.
 FormGI is forming the generalized inverse of G from B-inverse, IUseBI=4.
 Internal  Forces:  Max     0.056833713 RMS     0.034215434
 Search for a saddle point.
 Step number   8 out of a maximum of  100
 All quantities printed in internal units (Hartrees-Bohrs-Radians)
 Swapping is turned off.
 Update second derivatives using D2CorX and points    5    6    7    8
 The second derivative matrix:
                          R1        R2        A1
           R1           0.29117
           R2          -0.00526   0.52281
           A1           0.04282   0.02644   0.15711
 ITU=  0  0  0  0
     Eigenvalues ---    0.14271   0.30365   0.52474
 Eigenvectors required to have negative eigenvalues:
                          A1        R1        R2
   1                    0.95778  -0.27873  -0.07048
 RFO step:  Lambda0=1.641071031D-01 Lambda=-7.39783630D-07.
 Linear search not attempted -- option 19 set.
 Iteration  1 RMS(Cart)=  0.00074683 RMS(Int)=  0.00000037
 Iteration  2 RMS(Cart)=  0.00000044 RMS(Int)=  0.00000000
 ClnCor:  largest displacement from symmetrization is 1.66D-15 for atom     3.
 Variable       Old X    -DE/DX   Delta X   Delta X   Delta X     New X
                                 (Linear)    (Quad)   (Total)
    R1        3.12435   0.01641   0.00000  -0.00071  -0.00071   3.12364
    R2        1.82756   0.00358   0.00000  -0.00123  -0.00123   1.82633
    A1        2.17026  -0.05683   0.00000   0.00097   0.00097   2.17123
         Item               Value     Threshold  Converged?
 Maximum Force            0.056834     0.000450     NO 
 RMS     Force            0.034215     0.000300     NO 
 Maximum Displacement     0.000937     0.001800     YES
 RMS     Displacement     0.000747     0.001200     YES
 Predicted change in Energy= 7.172389D-05
 GradGradGradGradGradGradGradGradGradGradGradGradGradGradGradGradGradGrad

                          Input orientation:                          
 ---------------------------------------------------------------------
 Center     Atomic      Atomic             Coordinates (Angstroms)
 Number     Number       Type             X           Y           Z
 ---------------------------------------------------------------------
      1          8           0        1.486224   -2.665039    4.133144
      2         17           0        2.382526   -2.573405    5.518975
      3          1           0        1.203689   -1.900377    3.614012
 ---------------------------------------------------------------------
                    Distance matrix (angstroms):
                    1          2          3
     1  O    0.000000
     2  Cl   1.652961   0.000000
     3  H    0.966453   2.339125   0.000000
 Stoichiometry    ClHO
 Framework group  CS[SG(ClHO)]
 Deg. of freedom     3
 Full point group                 CS      NOp   2
 Largest Abelian subgroup         CS      NOp   2
 Largest concise Abelian subgroup C1      NOp   1
                         Standard orientation:                         
 ---------------------------------------------------------------------
 Center     Atomic      Atomic             Coordinates (Angstroms)
 Number     Number       Type             X           Y           Z
 ---------------------------------------------------------------------
      1          8           0        0.030670    1.059780    0.000000
      2         17           0        0.030670   -0.593181    0.000000
      3          1           0       -0.766740    1.605829   -0.000000
 ---------------------------------------------------------------------
 Rotational constants (GHZ):         880.5052417          15.3932887          15.1288019
 Standard basis: SVP (5D, 7F)
 There are    29 symmetry adapted cartesian basis functions of A'  symmetry.
 There are    10 symmetry adapted cartesian basis functions of A"  symmetry.
 There are    27 symmetry adapted basis functions of A'  symmetry.
 There are    10 symmetry adapted basis functions of A"  symmetry.
    37 basis functions,    69 primitive gaussians,    39 cartesian basis functions
    13 alpha electrons       13 beta electrons
       nuclear repulsion energy        51.7651468294 Hartrees.
 NAtoms=    3 NActive=    3 NUniq=    3 SFac= 1.00D+00 NAtFMM=   60 NAOKFM=F Big=F
 Integral buffers will be    131072 words long.
 Raffenetti 2 integral format.
 Two-electron integral symmetry is turned on.
 Nuclear repulsion after empirical dispersion term =       51.7635472932 Hartrees.
 One-electron integrals computed using PRISM.
 NBasis=    37 RedAO= T EigKep=  3.43D-02  NBF=    27    10
 NBsUse=    37 1.00D-06 EigRej= -1.00D+00 NBFU=    27    10
 Initial guess from the checkpoint file:  "/tmp/Gau-14950.chk"
 B after Tr=    -0.000000    0.000000    0.000000
         Rot=    1.000000    0.000000   -0.000000    0.000050 Ang=   0.01 deg.
 Initial guess orbital symmetries:
       Occupied  (A') (A') (A') (A') (A') (A") (A') (A') (A') (A')
                 (A") (A') (A")
       Virtual   (A') (A') (A') (A') (A') (A") (A') (A') (A") (A')
                 (A") (A') (A") (A') (A') (A') (A") (A') (A') (A")
                 (A') (A") (A') (A')
 Keep R1 ints in memory in symmetry-blocked form, NReq=7153137.
 Requested convergence on RMS density matrix=1.00D-08 within 128 cycles.
 Requested convergence on MAX density matrix=1.00D-06.
 Requested convergence on             energy=1.00D-06.
 No special actions if energy rises.
 SCF Done:  E(RB3LYP) =  -535.747624416     A.U. after    7 cycles
            NFock=  7  Conv=0.42D-08     -V/T= 2.0025
 Calling FoFJK, ICntrl=      2127 FMM=F ISym2X=1 I1Cent= 0 IOpClX= 0 NMat=1 NMatS=1 NMatT=0.
 ***** Axes restored to original set *****
 -------------------------------------------------------------------
 Center     Atomic                   Forces (Hartrees/Bohr)
 Number     Number              X              Y              Z
 -------------------------------------------------------------------
      1        8          -0.022308640   -0.041391332   -0.030437350
      2       17           0.009292457    0.019086468    0.012487052
      3        1           0.013016183    0.022304864    0.017950298
 -------------------------------------------------------------------
 Cartesian Forces:  Max     0.041391332 RMS     0.022932415

 GradGradGradGradGradGradGradGradGradGradGradGradGradGradGradGradGradGrad
 Berny optimization.
 FormGI is forming the generalized inverse of G from B-inverse, IUseBI=4.
 Internal  Forces:  Max     0.056925542 RMS     0.034315143
 Search for a saddle point.
 Step number   9 out of a maximum of  100
 All quantities printed in internal units (Hartrees-Bohrs-Radians)
 Swapping is turned off.
 Update second derivatives using D2CorX and points    6    7    8    9
 The second derivative matrix:
                          R1        R2        A1
           R1           0.28992
           R2          -0.00397   0.52988
           A1           0.04381   0.02393   0.15655
 ITU=  0  0  0  0
     Eigenvalues ---    0.14195   0.30298   0.53141
 Eigenvectors required to have negative eigenvalues:
                          A1        R1        R2
   1                    0.95655  -0.28490  -0.06191
 RFO step:  Lambda0=1.635485593D-01 Lambda=-9.79669827D-07.
 Linear search not attempted -- option 19 set.
 Iteration  1 RMS(Cart)=  0.00092159 RMS(Int)=  0.00000057
 Iteration  2 RMS(Cart)=  0.00000041 RMS(Int)=  0.00000000
 ClnCor:  largest displacement from symmetrization is 2.04D-15 for atom     3.
 Variable       Old X    -DE/DX   Delta X   Delta X   Delta X     New X
                                 (Linear)    (Quad)   (Total)
    R1        3.12364   0.01657   0.00000  -0.00166  -0.00166   3.12199
    R2        1.82633   0.00420   0.00000   0.00089   0.00089   1.82722
    A1        2.17123  -0.05693   0.00000   0.00122   0.00122   2.17246
         Item               Value     Threshold  Converged?
 Maximum Force            0.056926     0.000450     NO 
 RMS     Force            0.034315     0.000300     NO 
 Maximum Displacement     0.000999     0.001800     YES
 RMS     Displacement     0.000922     0.001200     YES
 Predicted change in Energy= 9.402307D-05
 GradGradGradGradGradGradGradGradGradGradGradGradGradGradGradGradGradGrad

                          Input orientation:                          
 ---------------------------------------------------------------------
 Center     Atomic      Atomic             Coordinates (Angstroms)
 Number     Number       Type             X           Y           Z
 ---------------------------------------------------------------------
      1          8           0        1.486578   -2.664827    4.133673
      2         17           0        2.382397   -2.573611    5.518796
      3          1           0        1.203464   -1.900382    3.613662
 ---------------------------------------------------------------------
                    Distance matrix (angstroms):
                    1          2          3
     1  O    0.000000
     2  Cl   1.652083   0.000000
     3  H    0.966924   2.339371   0.000000
 Stoichiometry    ClHO
 Framework group  CS[SG(ClHO)]
 Deg. of freedom     3
 Full point group                 CS      NOp   2
 Largest Abelian subgroup         CS      NOp   2
 Largest concise Abelian subgroup C1      NOp   1
                         Standard orientation:                         
 ---------------------------------------------------------------------
 Center     Atomic      Atomic             Coordinates (Angstroms)
 Number     Number       Type             X           Y           Z
 ---------------------------------------------------------------------
      1          8           0        0.030659    1.059159   -0.000000
      2         17           0        0.030659   -0.592925    0.000000
      3          1           0       -0.766471    1.606448   -0.000000
 ---------------------------------------------------------------------
 Rotational constants (GHZ):         881.2640163          15.4072120          15.1424749
 Standard basis: SVP (5D, 7F)
 There are    29 symmetry adapted cartesian basis functions of A'  symmetry.
 There are    10 symmetry adapted cartesian basis functions of A"  symmetry.
 There are    27 symmetry adapted basis functions of A'  symmetry.
 There are    10 symmetry adapted basis functions of A"  symmetry.
    37 basis functions,    69 primitive gaussians,    39 cartesian basis functions
    13 alpha electrons       13 beta electrons
       nuclear repulsion energy        51.7857458252 Hartrees.
 NAtoms=    3 NActive=    3 NUniq=    3 SFac= 1.00D+00 NAtFMM=   60 NAOKFM=F Big=F
 Integral buffers will be    131072 words long.
 Raffenetti 2 integral format.
 Two-electron integral symmetry is turned on.
 Nuclear repulsion after empirical dispersion term =       51.7841462951 Hartrees.
 One-electron integrals computed using PRISM.
 NBasis=    37 RedAO= T EigKep=  3.42D-02  NBF=    27    10
 NBsUse=    37 1.00D-06 EigRej= -1.00D+00 NBFU=    27    10
 Initial guess from the checkpoint file:  "/tmp/Gau-14950.chk"
 B after Tr=     0.000000   -0.000000   -0.000000
         Rot=    1.000000   -0.000000    0.000000    0.000026 Ang=   0.00 deg.
 Initial guess orbital symmetries:
       Occupied  (A') (A') (A') (A') (A') (A") (A') (A') (A') (A')
                 (A") (A') (A")
       Virtual   (A') (A') (A') (A') (A') (A") (A') (A') (A") (A')
                 (A") (A') (A") (A') (A') (A') (A") (A') (A') (A")
                 (A') (A") (A') (A')
 Keep R1 ints in memory in symmetry-blocked form, NReq=7153137.
 Requested convergence on RMS density matrix=1.00D-08 within 128 cycles.
 Requested convergence on MAX density matrix=1.00D-06.
 Requested convergence on             energy=1.00D-06.
 No special actions if energy rises.
 SCF Done:  E(RB3LYP) =  -535.747530402     A.U. after    7 cycles
            NFock=  7  Conv=0.27D-08     -V/T= 2.0025
 Calling FoFJK, ICntrl=      2127 FMM=F ISym2X=1 I1Cent= 0 IOpClX= 0 NMat=1 NMatS=1 NMatT=0.
 ***** Axes restored to original set *****
 -------------------------------------------------------------------
 Center     Atomic                   Forces (Hartrees/Bohr)
 Number     Number              X              Y              Z
 -------------------------------------------------------------------
      1        8          -0.022711871   -0.041111811   -0.031094070
      2       17           0.009545054    0.019149649    0.012873735
      3        1           0.013166816    0.021962162    0.018220335
 -------------------------------------------------------------------
 Cartesian Forces:  Max     0.041111811 RMS     0.023055690

 GradGradGradGradGradGradGradGradGradGradGradGradGradGradGradGradGradGrad
 Berny optimization.
 FormGI is forming the generalized inverse of G from B-inverse, IUseBI=4.
 Internal  Forces:  Max     0.057024399 RMS     0.034425941
 Search for a saddle point.
 Step number  10 out of a maximum of  100
 All quantities printed in internal units (Hartrees-Bohrs-Radians)
 Swapping is turned off.
 Update second derivatives using D2CorX and points    7    8    9   10
 The second derivative matrix:
                          R1        R2        A1
           R1           0.31325
           R2           0.00019   0.52701
           A1           0.04820   0.01872   0.13261
 ITU=  0  0  0  0
     Eigenvalues ---    0.11975   0.32519   0.52793
 Eigenvectors required to have negative eigenvalues:
                          A1        R1        R2
   1                   -0.96940   0.24141   0.04446
 RFO step:  Lambda0=1.443245700D-01 Lambda=-2.50884130D-05.
 Linear search not attempted -- option 19 set.
 Iteration  1 RMS(Cart)=  0.00848479 RMS(Int)=  0.00002945
 Iteration  2 RMS(Cart)=  0.00002239 RMS(Int)=  0.00000000
 Iteration  3 RMS(Cart)=  0.00000000 RMS(Int)=  0.00000000
 ClnCor:  largest displacement from symmetrization is 1.33D-15 for atom     3.
 Variable       Old X    -DE/DX   Delta X   Delta X   Delta X     New X
                                 (Linear)    (Quad)   (Total)
    R1        3.12199   0.01703   0.00000   0.00605   0.00605   3.12803
    R2        1.82722   0.00371   0.00000   0.00155   0.00155   1.82877
    A1        2.17246  -0.05702   0.00000   0.01047   0.01047   2.18292
         Item               Value     Threshold  Converged?
 Maximum Force            0.057024     0.000450     NO 
 RMS     Force            0.034426     0.000300     NO 
 Maximum Displacement     0.008126     0.001800     NO 
 RMS     Displacement     0.008480     0.001200     NO 
 Predicted change in Energy= 5.052572D-04
 GradGradGradGradGradGradGradGradGradGradGradGradGradGradGradGradGradGrad

                          Input orientation:                          
 ---------------------------------------------------------------------
 Center     Atomic      Atomic             Coordinates (Angstroms)
 Number     Number       Type             X           Y           Z
 ---------------------------------------------------------------------
      1          8           0        1.487161   -2.661858    4.134273
      2         17           0        2.384617   -2.575970    5.522496
      3          1           0        1.200661   -1.900992    3.609362
 ---------------------------------------------------------------------
                    Distance matrix (angstroms):
                    1          2          3
     1  O    0.000000
     2  Cl   1.655284   0.000000
     3  H    0.967746   2.348921   0.000000
 Stoichiometry    ClHO
 Framework group  CS[SG(ClHO)]
 Deg. of freedom     3
 Full point group                 CS      NOp   2
 Largest Abelian subgroup         CS      NOp   2
 Largest concise Abelian subgroup C1      NOp   1
                         Standard orientation:                         
 ---------------------------------------------------------------------
 Center     Atomic      Atomic             Coordinates (Angstroms)
 Number     Number       Type             X           Y           Z
 ---------------------------------------------------------------------
      1          8           0        0.030463    1.060913   -0.000000
      2         17           0        0.030463   -0.594370    0.000000
      3          1           0       -0.761567    1.616991   -0.000000
 ---------------------------------------------------------------------
 Rotational constants (GHZ):         893.3370058          15.3359001          15.0770723
 Standard basis: SVP (5D, 7F)
 There are    29 symmetry adapted cartesian basis functions of A'  symmetry.
 There are    10 symmetry adapted cartesian basis functions of A"  symmetry.
 There are    27 symmetry adapted basis functions of A'  symmetry.
 There are    10 symmetry adapted basis functions of A"  symmetry.
    37 basis functions,    69 primitive gaussians,    39 cartesian basis functions
    13 alpha electrons       13 beta electrons
       nuclear repulsion energy        51.6821622219 Hartrees.
 NAtoms=    3 NActive=    3 NUniq=    3 SFac= 1.00D+00 NAtFMM=   60 NAOKFM=F Big=F
 Integral buffers will be    131072 words long.
 Raffenetti 2 integral format.
 Two-electron integral symmetry is turned on.
 Nuclear repulsion after empirical dispersion term =       51.6805638368 Hartrees.
 One-electron integrals computed using PRISM.
 NBasis=    37 RedAO= T EigKep=  3.46D-02  NBF=    27    10
 NBsUse=    37 1.00D-06 EigRej= -1.00D+00 NBFU=    27    10
 Initial guess from the checkpoint file:  "/tmp/Gau-14950.chk"
 B after Tr=    -0.000000   -0.000000    0.000000
         Rot=    1.000000    0.000000   -0.000000    0.000456 Ang=   0.05 deg.
 Initial guess orbital symmetries:
       Occupied  (A') (A') (A') (A') (A') (A") (A') (A') (A') (A')
                 (A") (A') (A")
       Virtual   (A') (A') (A') (A') (A') (A") (A') (A') (A") (A')
                 (A") (A') (A") (A') (A') (A') (A") (A') (A') (A")
                 (A') (A") (A') (A')
 Keep R1 ints in memory in symmetry-blocked form, NReq=7153137.
 Requested convergence on RMS density matrix=1.00D-08 within 128 cycles.
 Requested convergence on MAX density matrix=1.00D-06.
 Requested convergence on             energy=1.00D-06.
[...]
           A1           0.02992   0.00636   0.12705
 ITU=  0  0  0  0
     Eigenvalues ---    0.12161   0.29668   0.51612
 Eigenvectors required to have negative eigenvalues:
                          A1        R1        R2
   1                   -0.98442   0.17449   0.02175
 RFO step:  Lambda0=1.478464611D-01 Lambda= 0.00000000D+00.
 Linear search not attempted -- option 19 set.
 Iteration  1 RMS(Cart)=  0.00000006 RMS(Int)=  0.00000000
 ClnCor:  largest displacement from symmetrization is 1.09D-15 for atom     3.
 Variable       Old X    -DE/DX   Delta X   Delta X   Delta X     New X
                                 (Linear)    (Quad)   (Total)
    R1        3.13968   0.01087   0.00000  -0.00000  -0.00000   3.13968
    R2        1.83191   0.00135   0.00000   0.00000   0.00000   1.83191
    A1        2.20110  -0.06132   0.00000   0.00000   0.00000   2.20110
         Item               Value     Threshold  Converged?
 Maximum Force            0.061316     0.000450     NO 
 RMS     Force            0.035961     0.000300     NO 
 Maximum Displacement     0.000000     0.001800     YES
 RMS     Displacement     0.000000     0.001200     YES
 Predicted change in Energy= 4.992900D-09
 GradGradGradGradGradGradGradGradGradGradGradGradGradGradGradGradGradGrad

                          Input orientation:                          
 ---------------------------------------------------------------------
 Center     Atomic      Atomic             Coordinates (Angstroms)
 Number     Number       Type             X           Y           Z
 ---------------------------------------------------------------------
      1          8           0        1.488086   -2.656711    4.135179
      2         17           0        2.388686   -2.580132    5.529262
      3          1           0        1.195667   -1.901978    3.601690
 ---------------------------------------------------------------------
                    Distance matrix (angstroms):
                    1          2          3
     1  O    0.000000
     2  Cl   1.661449   0.000000
     3  H    0.969403   2.366162   0.000000
 Stoichiometry    ClHO
 Framework group  CS[SG(ClHO)]
 Deg. of freedom     3
 Full point group                 CS      NOp   2
 Largest Abelian subgroup         CS      NOp   2
 Largest concise Abelian subgroup C1      NOp   1
                         Standard orientation:                         
 ---------------------------------------------------------------------
 Center     Atomic      Atomic             Coordinates (Angstroms)
 Number     Number       Type             X           Y           Z
 ---------------------------------------------------------------------
      1          8           0        0.030120    1.064356    0.000000
      2         17           0        0.030120   -0.597092   -0.000000
      3          1           0       -0.753009    1.635715    0.000000
 ---------------------------------------------------------------------
 Rotational constants (GHZ):         914.9582355          15.2023287          14.9538653
 Standard basis: SVP (5D, 7F)
 There are    29 symmetry adapted cartesian basis functions of A'  symmetry.
 There are    10 symmetry adapted cartesian basis functions of A"  symmetry.
 There are    27 symmetry adapted basis functions of A'  symmetry.
 There are    10 symmetry adapted basis functions of A"  symmetry.
    37 basis functions,    69 primitive gaussians,    39 cartesian basis functions
    13 alpha electrons       13 beta electrons
       nuclear repulsion energy        51.4854538722 Hartrees.
 NAtoms=    3 NActive=    3 NUniq=    3 SFac= 1.00D+00 NAtFMM=   60 NAOKFM=F Big=F
 Integral buffers will be    131072 words long.
 Raffenetti 2 integral format.
 Two-electron integral symmetry is turned on.
 Nuclear repulsion after empirical dispersion term =       51.4838576224 Hartrees.
 One-electron integrals computed using PRISM.
 NBasis=    37 RedAO= T EigKep=  3.51D-02  NBF=    27    10
 NBsUse=    37 1.00D-06 EigRej= -1.00D+00 NBFU=    27    10
 Initial guess from the checkpoint file:  "/tmp/Gau-14950.chk"
 B after Tr=     0.000000    0.000000   -0.000000
         Rot=    1.000000    0.000000   -0.000000    0.000000 Ang=   0.00 deg.
 Initial guess orbital symmetries:
       Occupied  (A') (A') (A') (A') (A') (A") (A') (A') (A') (A')
                 (A") (A') (A")
       Virtual   (A') (A') (A') (A') (A') (A") (A') (A') (A") (A')
                 (A") (A') (A") (A') (A') (A') (A") (A') (A') (A")
                 (A') (A") (A') (A')
 Keep R1 ints in memory in symmetry-blocked form, NReq=7153137.
 Requested convergence on RMS density matrix=1.00D-08 within 128 cycles.
 Requested convergence on MAX density matrix=1.00D-06.
 Requested convergence on             energy=1.00D-06.
 No special actions if energy rises.
 SCF Done:  E(RB3LYP) =  -535.746092864     A.U. after    2 cycles
            NFock=  2  Conv=0.67D-08     -V/T= 2.0025
 Calling FoFJK, ICntrl=      2127 FMM=F ISym2X=1 I1Cent= 0 IOpClX= 0 NMat=1 NMatS=1 NMatT=0.
 ***** Axes restored to original set *****
 -------------------------------------------------------------------
 Center     Atomic                   Forces (Hartrees/Bohr)
 Number     Number              X              Y              Z
 -------------------------------------------------------------------
      1        8          -0.021006444   -0.041955573   -0.028351626
      2       17           0.006322655    0.019979564    0.007771153
      3        1           0.014683789    0.021976009    0.020580472
 -------------------------------------------------------------------
 Cartesian Forces:  Max     0.041955573 RMS     0.022674067

 GradGradGradGradGradGradGradGradGradGradGradGradGradGradGradGradGradGrad
 Berny optimization.
 Internal  Forces:  Max     0.061315896 RMS     0.035961090
 Search for a saddle point.
 Step number  99 out of a maximum of  100
 All quantities printed in internal units (Hartrees-Bohrs-Radians)
 Swapping is turned off.
 Update second derivatives using D2CorX and points   99
 The second derivative matrix:
                          R1        R2        A1
           R1           0.29206
           R2          -0.01318   0.51529
           A1           0.02992   0.00636   0.12705
 ITU=  0  0  0  0
     Eigenvalues ---    0.12161   0.29668   0.51612
 Eigenvectors required to have negative eigenvalues:
                          A1        R1        R2
   1                   -0.98442   0.17449   0.02175
 RFO step:  Lambda0=1.478464840D-01 Lambda= 0.00000000D+00.
 Linear search not attempted -- option 19 set.
 Iteration  1 RMS(Cart)=  0.00000004 RMS(Int)=  0.00000000
 ClnCor:  largest displacement from symmetrization is 4.44D-16 for atom     3.
 Variable       Old X    -DE/DX   Delta X   Delta X   Delta X     New X
                                 (Linear)    (Quad)   (Total)
    R1        3.13968   0.01087   0.00000  -0.00000  -0.00000   3.13968
    R2        1.83191   0.00135   0.00000  -0.00000  -0.00000   1.83191
    A1        2.20110  -0.06132   0.00000   0.00000   0.00000   2.20110
         Item               Value     Threshold  Converged?
 Maximum Force            0.061316     0.000450     NO 
 RMS     Force            0.035961     0.000300     NO 
 Maximum Displacement     0.000000     0.001800     YES
 RMS     Displacement     0.000000     0.001200     YES
 Predicted change in Energy= 3.626756D-09
 GradGradGradGradGradGradGradGradGradGradGradGradGradGradGradGradGradGrad

                          Input orientation:                          
 ---------------------------------------------------------------------
 Center     Atomic      Atomic             Coordinates (Angstroms)
 Number     Number       Type             X           Y           Z
 ---------------------------------------------------------------------
      1          8           0        1.488086   -2.656711    4.135179
      2         17           0        2.388686   -2.580132    5.529262
      3          1           0        1.195667   -1.901978    3.601690
 ---------------------------------------------------------------------
                    Distance matrix (angstroms):
                    1          2          3
     1  O    0.000000
     2  Cl   1.661449   0.000000
     3  H    0.969403   2.366162   0.000000
 Stoichiometry    ClHO
 Framework group  CS[SG(ClHO)]
 Deg. of freedom     3
 Full point group                 CS      NOp   2
 Largest Abelian subgroup         CS      NOp   2
 Largest concise Abelian subgroup C1      NOp   1
                         Standard orientation:                         
 ---------------------------------------------------------------------
 Center     Atomic      Atomic             Coordinates (Angstroms)
 Number     Number       Type             X           Y           Z
 ---------------------------------------------------------------------
      1          8           0        0.030120    1.064356    0.000000
      2         17           0        0.030120   -0.597092   -0.000000
      3          1           0       -0.753009    1.635716    0.000000
 ---------------------------------------------------------------------
 Rotational constants (GHZ):         914.9583728          15.2023287          14.9538654
 Standard basis: SVP (5D, 7F)
 There are    29 symmetry adapted cartesian basis functions of A'  symmetry.
 There are    10 symmetry adapted cartesian basis functions of A"  symmetry.
 There are    27 symmetry adapted basis functions of A'  symmetry.
 There are    10 symmetry adapted basis functions of A"  symmetry.
    37 basis functions,    69 primitive gaussians,    39 cartesian basis functions
    13 alpha electrons       13 beta electrons
       nuclear repulsion energy        51.4854541037 Hartrees.
 NAtoms=    3 NActive=    3 NUniq=    3 SFac= 1.00D+00 NAtFMM=   60 NAOKFM=F Big=F
 Integral buffers will be    131072 words long.
 Raffenetti 2 integral format.
 Two-electron integral symmetry is turned on.
 Nuclear repulsion after empirical dispersion term =       51.4838578540 Hartrees.
 One-electron integrals computed using PRISM.
 NBasis=    37 RedAO= T EigKep=  3.51D-02  NBF=    27    10
 NBsUse=    37 1.00D-06 EigRej= -1.00D+00 NBFU=    27    10
 Initial guess from the checkpoint file:  "/tmp/Gau-14950.chk"
 B after Tr=     0.000000    0.000000    0.000000
         Rot=    1.000000    0.000000    0.000000    0.000000 Ang=   0.00 deg.
 Initial guess orbital symmetries:
       Occupied  (A') (A') (A') (A') (A') (A") (A') (A') (A') (A')
                 (A") (A') (A")
       Virtual   (A') (A') (A') (A') (A') (A") (A') (A') (A") (A')
                 (A") (A') (A") (A') (A') (A') (A") (A') (A') (A")
                 (A') (A") (A') (A')
 Keep R1 ints in memory in symmetry-blocked form, NReq=7153137.
 Requested convergence on RMS density matrix=1.00D-08 within 128 cycles.
 Requested convergence on MAX density matrix=1.00D-06.
 Requested convergence on             energy=1.00D-06.
 No special actions if energy rises.
 SCF Done:  E(RB3LYP) =  -535.746092860     A.U. after    1 cycles
            NFock=  1  Conv=0.10D-08     -V/T= 2.0025
 Calling FoFJK, ICntrl=      2127 FMM=F ISym2X=1 I1Cent= 0 IOpClX= 0 NMat=1 NMatS=1 NMatT=0.
 ***** Axes restored to original set *****
 -------------------------------------------------------------------
 Center     Atomic                   Forces (Hartrees/Bohr)
 Number     Number              X              Y              Z
 -------------------------------------------------------------------
      1        8          -0.021006434   -0.041955605   -0.028351608
      2       17           0.006322654    0.019979566    0.007771151
      3        1           0.014683780    0.021976039    0.020580456
 -------------------------------------------------------------------
 Cartesian Forces:  Max     0.041955605 RMS     0.022674071

 GradGradGradGradGradGradGradGradGradGradGradGradGradGradGradGradGradGrad
 Berny optimization.
 Internal  Forces:  Max     0.061315904 RMS     0.035961095
 Search for a saddle point.
 Step number 100 out of a maximum of  100
 All quantities printed in internal units (Hartrees-Bohrs-Radians)
 Swapping is turned off.
 Update second derivatives using D2CorX and points  100
 The second derivative matrix:
                          R1        R2        A1
           R1           0.29206
           R2          -0.01318   0.51529
           A1           0.02992   0.00636   0.12705
 ITU=  0  0  0  0
     Eigenvalues ---    0.12161   0.29668   0.51612
 Eigenvectors required to have negative eigenvalues:
                          A1        R1        R2
   1                   -0.98442   0.17449   0.02175
 RFO step:  Lambda0=1.478464899D-01 Lambda= 0.00000000D+00.
 Linear search not attempted -- option 19 set.
 Iteration  1 RMS(Cart)=  0.00000001 RMS(Int)=  0.00000000
 ClnCor:  largest displacement from symmetrization is 3.01D-15 for atom     3.
 Variable       Old X    -DE/DX   Delta X   Delta X   Delta X     New X
                                 (Linear)    (Quad)   (Total)
    R1        3.13968   0.01087   0.00000  -0.00000  -0.00000   3.13968
    R2        1.83191   0.00135   0.00000   0.00000   0.00000   1.83191
    A1        2.20110  -0.06132   0.00000   0.00000   0.00000   2.20110
         Item               Value     Threshold  Converged?
 Maximum Force            0.061316     0.000450     NO 
 RMS     Force            0.035961     0.000300     NO 
 Maximum Displacement     0.000000     0.001800     YES
 RMS     Displacement     0.000000     0.001200     YES
 Predicted change in Energy= 6.171242D-10
 Optimization stopped.
    -- Number of steps exceeded,  NStep= 100
    -- Flag reset to prevent archiving.
                           ----------------------------
                           ! Non-Optimized Parameters !
                           ! (Angstroms and Degrees)  !
 --------------------------                            --------------------------
 ! Name  Definition              Value          Derivative Info.                !
 --------------------------------------------------------------------------------
 ! R1    R(1,2)                  1.6614         -DE/DX =    0.0109              !
 ! R2    R(1,3)                  0.9694         -DE/DX =    0.0014              !
 ! A1    A(2,1,3)              126.1139         -DE/DX =   -0.0613              !
 --------------------------------------------------------------------------------
 GradGradGradGradGradGradGradGradGradGradGradGradGradGradGradGradGradGrad

                          Input orientation:                          
 ---------------------------------------------------------------------
 Center     Atomic      Atomic             Coordinates (Angstroms)
 Number     Number       Type             X           Y           Z
 ---------------------------------------------------------------------
      1          8           0        1.488086   -2.656711    4.135179
      2         17           0        2.388686   -2.580132    5.529262
      3          1           0        1.195667   -1.901978    3.601690
 ---------------------------------------------------------------------
                    Distance matrix (angstroms):
                    1          2          3
     1  O    0.000000
     2  Cl   1.661449   0.000000
     3  H    0.969403   2.366162   0.000000
 Stoichiometry    ClHO
 Framework group  CS[SG(ClHO)]
 Deg. of freedom     3
 Full point group                 CS      NOp   2
 Largest Abelian subgroup         CS      NOp   2
 Largest concise Abelian subgroup C1      NOp   1
                         Standard orientation:                         
 ---------------------------------------------------------------------
 Center     Atomic      Atomic             Coordinates (Angstroms)
 Number     Number       Type             X           Y           Z
 ---------------------------------------------------------------------
      1          8           0        0.030120    1.064356   -0.000000
      2         17           0        0.030120   -0.597092    0.000000
      3          1           0       -0.753009    1.635716   -0.000000
 ---------------------------------------------------------------------
 Rotational constants (GHZ):         914.9583728          15.2023287          14.9538654

 **********************************************************************

            Population analysis using the SCF density.

 **********************************************************************

 Orbital symmetries:
       Occupied  (A') (A') (A') (A') (A') (A") (A') (A') (A') (A')
                 (A") (A') (A")
       Virtual   (A') (A') (A') (A') (A') (A") (A') (A') (A") (A')
                 (A") (A') (A") (A') (A') (A') (A") (A') (A') (A")
                 (A') (A") (A') (A')
 The electronic state is 1-A'.
 Alpha  occ. eigenvalues -- -101.54241 -19.17563  -9.49425  -7.26804  -7.25108
 Alpha  occ. eigenvalues --   -7.25069  -1.04400  -0.79471  -0.53924  -0.41325
 Alpha  occ. eigenvalues --   -0.40048  -0.29606  -0.26792
 Alpha virt. eigenvalues --   -0.05826   0.07531   0.43359   0.54351   0.69835
 Alpha virt. eigenvalues --    0.70139   0.74178   0.76225   0.76259   0.84947
 Alpha virt. eigenvalues --    0.85167   0.95299   0.99417   1.08027   1.17184
 Alpha virt. eigenvalues --    1.21580   1.45572   1.70227   2.16910   2.63086
 Alpha virt. eigenvalues --    2.73722   2.92300   3.06869   3.63445
          Condensed to atoms (all electrons):
               1          2          3
     1  O    7.951738   0.097396   0.313688
     2  Cl   0.097396  16.777285  -0.019900
     3  H    0.313688  -0.019900   0.488609
 Mulliken charges:
               1
     1  O   -0.362822
     2  Cl   0.145219
     3  H    0.217602
 Sum of Mulliken charges =  -0.00000
 Mulliken charges with hydrogens summed into heavy atoms:
               1
     1  O   -0.145219
     2  Cl   0.145219
 Electronic spatial extent (au):  <R**2>=            102.9713
 Charge=              0.0000 electrons
 Dipole moment (field-independent basis, Debye):
    X=             -1.5210    Y=              0.4422    Z=             -0.0000  Tot=              1.5840
 Quadrupole moment (field-independent basis, Debye-Ang):
   XX=            -17.0984   YY=            -14.5516   ZZ=            -18.5242
   XY=             -2.9069   XZ=              0.0000   YZ=             -0.0000
 Traceless Quadrupole moment (field-independent basis, Debye-Ang):
   XX=             -0.3737   YY=              2.1732   ZZ=             -1.7995
   XY=             -2.9069   XZ=              0.0000   YZ=             -0.0000
 Octapole moment (field-independent basis, Debye-Ang**2):
  XXX=             -1.4370  YYY=              4.8663  ZZZ=             -0.0000  XYY=             -4.4428
  XXY=              2.7733  XXZ=             -0.0000  XZZ=             -0.2137  YZZ=              0.7017
  YYZ=             -0.0000  XYZ=              0.0000
 Hexadecapole moment (field-independent basis, Debye-Ang**3):
 XXXX=            -17.0218 YYYY=            -66.8830 ZZZZ=            -16.5294 XXXY=             -0.0101
 XXXZ=              0.0000 YYYX=             -6.2992 YYYZ=             -0.0000 ZZZX=              0.0000
 ZZZY=             -0.0000 XXYY=            -14.2619 XXZZ=             -5.7249 YYZZ=            -17.5341
 XXYZ=             -0.0000 YYXZ=              0.0000 ZZXY=              0.4778
 N-N= 5.148385785401D+01 E-N=-1.376029653337D+03  KE= 5.344081562367D+02
 Symmetry A'   KE= 4.836592516874D+02
 Symmetry A"   KE= 5.074890454930D+01


 TWO ROADS DIVERGED IN A WOOD, AND I--
 I TOOK THE ONE LESS TRAVELED BY,
 AND THAT HAS MADE ALL THE DIFFERENCE.

                       -- ROBERT FROST
 Error termination request processed by link 9999.
 Error termination via Lnk1e in /share/apps/g16.a03/g16/l9999.exe at Thu Mar  6 16:43:08 2025.
 Job cpu time:       0 days  0 hours 12 minutes  3.2 seconds.
 Elapsed time:       0 days  0 hours  1 minutes 33.2 seconds.
 File lengths (MBytes):  RWF=      6 Int=      0 D2E=      0 Chk=      1 Scr=      1
