 Entering Gaussian System, Link 0=g16
 Input=ts.gjf
 Output=ts.log
 Initial command:
 /share/apps/g16.a03/g16/l1.exe "/tmp/Gau-14102.inp" -scrdir="/tmp/"
 Entering Link 1 = /share/apps/g16.a03/g16/l1.exe PID=     14104.
  
 Copyright (c) 1988,1990,1992,1993,1995,1998,2003,2009,2016,
            Gaussian, Inc.  All Rights Reserved.
  
 This is part of the Gaussian(R) 16 program.  It is based on
 the Gaussian(R) 09 system (copyright 2009, Gaussian, Inc.),
 the Gaussian(R) 03 system (copyright 2003, Gaussian, Inc.),
 the Gaussian(R) 98 system (copyright 1998, Gaussian, Inc.),
 the Gaussian(R) 94 system (copyright 1995, Gaussian, Inc.),
 the Gaussian 92(TM) system (copyright 1992, Gaussian, Inc.),
 the Gaussian 90(TM) system (copyright 1990, Gaussian, Inc.),
 the Gaussian 88(TM) system (copyright 1988, Gaussian, Inc.),
 the Gaussian 86(TM) system (copyright 1986, Carnegie Mellon
 University), and the Gaussian 82(TM) system (copyright 1983,
 Carnegie Mellon University). Gaussian is a federally registered
 trademark of Gaussian, Inc.
  
 This software contains proprietary and confidential information,
 including trade secrets, belonging to Gaussian, Inc.
  
 This software is provided under written license and may be
 used, copied, transmitted, or stored only in accord with that
 written license.
  
 The following legend is applicable only to US Government
 contracts under FAR:
  
                    RESTRICTED RIGHTS LEGEND
  
 Use, reproduction and disclosure by the US Government is
 subject to restrictions as set forth in subparagraphs (a)
 and (c) of the Commercial Computer Software - Restricted
 Rights clause in FAR 52.227-19.
  
 Gaussian, Inc.
 340 Quinnipiac St., Bldg. 40, Wallingford CT 06492
  
  
 ---------------------------------------------------------------
 Warning -- This program may not be used in any manner that
 competes with the business of Gaussian, Inc. or will provide
 assistance to any competitor of Gaussian, Inc.  The licensee
 of this program is prohibited from giving any competitor of
 Gaussian, Inc. access to this program.  By using this program,
 the user acknowledges that Gaussian, Inc. is engaged in the
 business of creating and licensing software in the field of
 computational chemistry and represents and warrants to the
 licensee that it is not a competitor of Gaussian, Inc. and that
 it will not use this program in any manner prohibited above.
 ---------------------------------------------------------------
  

 Cite this work as:
 Gaussian 16, Revision A.03,
 M. J. Frisch, G. W. Trucks, H. B. Schlegel, G. E. Scuseria, 
 M. A. Robb, J. R. Cheeseman, G. Scalmani, V. Barone, 
 G. A. Petersson, H. Nakatsuji, X. Li, M. Caricato, A. V. Marenich, 
 J. Bloino, B. G. Janesko, R. Gomperts, B. Mennucci, H. P. Hratchian, 
 J. V. Ortiz, A. F. Izmaylov, J. L. Sonnenberg, D. Williams-Young, 
 F. Ding, F. Lipparini, F. Egidi, J. Goings, B. Peng, A. Petrone, 
 T. Henderson, D. Ranasinghe, V. G. Zakrzewski, J. Gao, N. Rega, 
 G. Zheng, W. Liang, M. Hada, M. Ehara, K. Toyota, R. Fukuda, 
 J. Hasegawa, M. Ishida, T. Nakajima, Y. Honda, O. Kitao, H. Nakai, 
 T. Vreven, K. Throssell, J. A. Montgomery, Jr., J. E. Peralta, 
 F. Ogliaro, M. J. Bearpark, J. J. Heyd, E. N. Brothers, K. N. Kudin, 
 V. N. Staroverov, T. A. Keith, R. Kobayashi, J. Normand, 
 K. Raghavachari, A. P. Rendell, J. C. Burant, S. S. Iyengar, 
 J. Tomasi, M. Cossi, J. M. Millam, M. Klene, C. Adamo, R. Cammi, 
 J. W. Ochterski, R. L. Martin, K. Morokuma, O. Farkas, 
 J. B. Foresman, and D. J. Fox, Gaussian, Inc., Wallingford CT, 2016.
 
 ******************************************
 Gaussian 16:  EM64L-G16RevA.03 25-Dec-2016
                 6-Mar-2025 
 ******************************************
 %nproc=8
 Will use up to    8 processors via shared memory.
 %mem=4000MB
 --------------------------------------------------------------------
 #opt=(noeigen,calcfc,ts,recalc=5,maxcyc=200) freq B3LYP/SVP em=GD3BJ
 --------------------------------------------------------------------
 1/5=1,6=200,10=4,11=1,18=20,26=3,38=1,71=5/1,3;
 2/9=110,12=2,17=6,18=5,40=1/2;
 3/5=18,7=101,11=2,25=1,30=1,71=2,74=-5,124=41,140=1/1,2,3;
 4//1;
 5/5=2,38=5/2;
 8/6=4,10=90,11=11/1;
 11/6=1,8=1,9=11,15=111,16=1/1,2,10;
 10/6=1,13=1/2;
 6/7=2,8=2,9=2,10=2,28=1/1;
 7/10=1,18=20,25=1/1,2,3,16;
 1/5=1,6=200,10=4,11=1,18=20,26=3,71=5/3(2);
 2/9=110/2;
 99//99;
 2/9=110/2;
 3/5=18,7=101,11=2,25=1,30=1,71=1,74=-5,124=41/1,2,3;
 4/5=5,16=3,69=1/1;
 5/5=2,38=5/2;
 7//1,2,3,16;
 1/5=1,6=200,11=1,18=20,26=3,71=5/3(-5);
 2/9=110/2;
 6/7=2,8=2,9=2,10=2,19=2,28=1/1;
 99/9=1/99;
 ----------
 ts-417.gjf
 ----------
 Symbolic Z-matrix:
 Charge =  0 Multiplicity = 1
 O                     0.86292   3.63346  -1.04879 
 Cl                    2.13042   3.85904  -2.81301 
 H                     1.37224   4.03641  -0.36259 
 
 Add virtual bond connecting atoms Cl2        and O1         Dist= 4.13D+00.

 GradGradGradGradGradGradGradGradGradGradGradGradGradGradGradGradGradGrad
 Berny optimization.
 Initialization pass.
                           ----------------------------
                           !    Initial Parameters    !
                           ! (Angstroms and Degrees)  !
 --------------------------                            --------------------------
 ! Name  Definition              Value          Derivative Info.                !
 --------------------------------------------------------------------------------
 ! R1    R(1,2)                  2.184          calculate D2E/DX2 analytically  !
 ! R2    R(1,3)                  0.9448         calculate D2E/DX2 analytically  !
 ! A1    A(2,1,3)              103.2838         calculate D2E/DX2 analytically  !
 --------------------------------------------------------------------------------
 Trust Radius=3.00D-01 FncErr=1.00D-07 GrdErr=1.00D-06 EigMax=2.50D+02 EigMin=1.00D-04
 Number of steps in this run=    100 maximum allowed number of steps=    100.
 Search for a saddle point of order  1.
 GradGradGradGradGradGradGradGradGradGradGradGradGradGradGradGradGradGrad

                          Input orientation:                          
 ---------------------------------------------------------------------
 Center     Atomic      Atomic             Coordinates (Angstroms)
 Number     Number       Type             X           Y           Z
 ---------------------------------------------------------------------
      1          8           0        0.862916    3.633460   -1.048788
      2         17           0        2.130420    3.859042   -2.813012
      3          1           0        1.372242    4.036413   -0.362594
 ---------------------------------------------------------------------
                    Distance matrix (angstroms):
                    1          2          3
     1  O    0.000000
     2  Cl   2.184018   0.000000
     3  H    0.944799   2.571156   0.000000
 Stoichiometry    ClHO
 Framework group  CS[SG(ClHO)]
 Deg. of freedom     3
 Full point group                 CS      NOp   2
 Largest Abelian subgroup         CS      NOp   2
 Largest concise Abelian subgroup C1      NOp   1
                         Standard orientation:                         
 ---------------------------------------------------------------------
 Center     Atomic      Atomic             Coordinates (Angstroms)
 Number     Number       Type             X           Y           Z
 ---------------------------------------------------------------------
      1          8           0        0.035366    1.419662    0.000000
      2         17           0        0.035366   -0.764356   -0.000000
      3          1           0       -0.884154    1.636753    0.000000
 ---------------------------------------------------------------------
 Rotational constants (GHZ):         638.9264724           9.1383093           9.0094507
 Standard basis: SVP (5D, 7F)
 There are    29 symmetry adapted cartesian basis functions of A'  symmetry.
 There are    10 symmetry adapted cartesian basis functions of A"  symmetry.
 There are    27 symmetry adapted basis functions of A'  symmetry.
 There are    10 symmetry adapted basis functions of A"  symmetry.
    37 basis functions,    69 primitive gaussians,    39 cartesian basis functions
    13 alpha electrons       13 beta electrons
       nuclear repulsion energy        40.9317280670 Hartrees.
 NAtoms=    3 NActive=    3 NUniq=    3 SFac= 1.00D+00 NAtFMM=   60 NAOKFM=F Big=F
 Integral buffers will be    131072 words long.
 Raffenetti 2 integral format.
 Two-electron integral symmetry is turned on.
 Nuclear repulsion after empirical dispersion term =       40.9301085661 Hartrees.
 One-electron integrals computed using PRISM.
 NBasis=    37 RedAO= T EigKep=  4.96D-02  NBF=    27    10
 NBsUse=    37 1.00D-06 EigRej= -1.00D+00 NBFU=    27    10
 ExpMin= 1.22D-01 ExpMax= 1.04D+04 ExpMxC= 1.57D+03 IAcc=3 IRadAn=         5 AccDes= 0.00D+00
 Harris functional with IExCor=  402 and IRadAn=       5 diagonalized for initial guess.
 HarFok:  IExCor=  402 AccDes= 0.00D+00 IRadAn=         5 IDoV= 1 UseB2=F ITyADJ=14
 ICtDFT=  3500011 ScaDFX=  1.000000  1.000000  1.000000  1.000000
 FoFCou: FMM=F IPFlag=           0 FMFlag=      100000 FMFlg1=           0
         NFxFlg=           0 DoJE=T BraDBF=F KetDBF=T FulRan=T
         wScrn=  0.000000 ICntrl=       500 IOpCl=  0 I1Cent=   200000004 NGrid=           0
         NMat0=    1 NMatS0=      1 NMatT0=    0 NMatD0=    1 NMtDS0=    0 NMtDT0=    0
 Petite list used in FoFCou.
 Initial guess orbital symmetries:
       Occupied  (A') (A') (A') (A') (A') (A") (A') (A') (A') (A')
                 (A") (A') (A")
       Virtual   (A') (A') (A') (A') (A') (A') (A") (A') (A") (A')
                 (A") (A') (A') (A") (A') (A') (A") (A') (A') (A")
                 (A') (A") (A') (A')
 The electronic state of the initial guess is 1-A'.
 Keep R1 ints in memory in symmetry-blocked form, NReq=7153137.
 Requested convergence on RMS density matrix=1.00D-08 within 128 cycles.
 Requested convergence on MAX density matrix=1.00D-06.
 Requested convergence on             energy=1.00D-06.
 No special actions if energy rises.
 Integral accuracy reduced to 1.0D-05 until final iterations.
 Initial convergence to 1.0D-05 achieved.  Increase integral accuracy.
 SCF Done:  E(RB3LYP) =  -535.715184929     A.U. after   14 cycles
            NFock= 14  Conv=0.50D-08     -V/T= 2.0031
 DoSCS=F DFT=T ScalE2(SS,OS)=  1.000000  1.000000
 Range of M.O.s used for correlation:     1    37
 NBasis=    37 NAE=    13 NBE=    13 NFC=     0 NFV=     0
 NROrb=     37 NOA=    13 NOB=    13 NVA=    24 NVB=    24
 Symmetrizing basis deriv contribution to polar:
 IMax=3 JMax=2 DiffMx= 0.00D+00
 G2DrvN: will do     4 centers at a time, making    1 passes.
 Calling FoFCou, ICntrl=  3107 FMM=F I1Cent=   0 AccDes= 0.00D+00.
 End of G2Drv F.D. properties file   721 does not exist.
 End of G2Drv F.D. properties file   722 does not exist.
 End of G2Drv F.D. properties file   788 does not exist.
          IDoAtm=111
          Differentiating once with respect to nuclear coordinates.
 Keep R1 ints in memory in symmetry-blocked form, NReq=7127942.
          There are    12 degrees of freedom in the 1st order CPHF.  IDoFFX=6 NUNeed=     0.
      6 vectors produced by pass  0 Test12= 2.60D-15 8.33D-09 XBig12= 7.94D-02 1.91D-01.
 AX will form     6 AO Fock derivatives at one time.
      6 vectors produced by pass  1 Test12= 2.60D-15 8.33D-09 XBig12= 1.12D-01 1.40D-01.
      6 vectors produced by pass  2 Test12= 2.60D-15 8.33D-09 XBig12= 1.45D-03 1.82D-02.
      6 vectors produced by pass  3 Test12= 2.60D-15 8.33D-09 XBig12= 1.12D-04 3.83D-03.
      6 vectors produced by pass  4 Test12= 2.60D-15 8.33D-09 XBig12= 1.52D-06 4.45D-04.
      6 vectors produced by pass  5 Test12= 2.60D-15 8.33D-09 XBig12= 4.28D-09 2.15D-05.
      3 vectors produced by pass  6 Test12= 2.60D-15 8.33D-09 XBig12= 3.99D-12 7.22D-07.
      1 vectors produced by pass  7 Test12= 2.60D-15 8.33D-09 XBig12= 2.04D-15 1.17D-08.
 InvSVY:  IOpt=1 It=  1 EMax= 6.41D-17
 Solved reduced A of dimension    40 with     6 vectors.
 End of Minotr F.D. properties file   721 does not exist.
 End of Minotr F.D. properties file   722 does not exist.
 End of Minotr F.D. properties file   788 does not exist.

 **********************************************************************

            Population analysis using the SCF density.

 **********************************************************************

 Orbital symmetries:
       Occupied  (A') (A') (A') (A') (A') (A") (A') (A') (A') (A')
                 (A") (A') (A")
       Virtual   (A') (A') (A') (A') (A') (A") (A') (A') (A") (A')
                 (A") (A') (A') (A") (A') (A') (A") (A') (A') (A")
                 (A') (A') (A") (A')
 The electronic state is 1-A'.
 Alpha  occ. eigenvalues -- -101.54909 -19.21618  -9.49695  -7.27057  -7.25443
 Alpha  occ. eigenvalues --   -7.25427  -0.99503  -0.80495  -0.48594  -0.39465
 Alpha  occ. eigenvalues --   -0.35763  -0.32891  -0.31264
 Alpha virt. eigenvalues --   -0.19410   0.06052   0.46343   0.57893   0.67196
 Alpha virt. eigenvalues --    0.71442   0.71577   0.76565   0.76580   0.82865
 Alpha virt. eigenvalues --    0.83123   0.90753   0.95302   0.96430   1.03099
 Alpha virt. eigenvalues --    1.27276   1.40857   1.52540   2.21178   2.58527
 Alpha virt. eigenvalues --    2.64697   2.93802   2.95943   3.67152
          Condensed to atoms (all electrons):
               1          2          3
     1  O    7.772161   0.145984   0.292432
     2  Cl   0.145984  16.838638  -0.002667
     3  H    0.292432  -0.002667   0.517702
 Mulliken charges:
               1
     1  O   -0.210577
     2  Cl   0.018044
     3  H    0.192532
 Sum of Mulliken charges =   0.00000
 Mulliken charges with hydrogens summed into heavy atoms:
               1
     1  O   -0.018044
     2  Cl   0.018044
 APT charges:
               1
     1  O   -0.462292
     2  Cl   0.008818
     3  H    0.453474
 Sum of APT charges =   0.00000
 APT charges with hydrogens summed into heavy atoms:
               1
     1  O   -0.008818
     2  Cl   0.008818
 Electronic spatial extent (au):  <R**2>=            143.0410
 Charge=             -0.0000 electrons
 Dipole moment (field-independent basis, Debye):
    X=             -1.6295    Y=              0.2358    Z=             -0.0000  Tot=              1.6465
 Quadrupole moment (field-independent basis, Debye-Ang):
   XX=            -16.8524   YY=            -14.8337   ZZ=            -18.7859
   XY=             -2.9439   XZ=             -0.0000   YZ=             -0.0000
 Traceless Quadrupole moment (field-independent basis, Debye-Ang):
   XX=             -0.0284   YY=              1.9903   ZZ=             -1.9619
   XY=             -2.9439   XZ=             -0.0000   YZ=             -0.0000
 Octapole moment (field-independent basis, Debye-Ang**2):
  XXX=             -1.9794  YYY=              3.7409  ZZZ=              0.0000  XYY=             -4.8039
  XXY=              3.6598  XXZ=              0.0000  XZZ=             -0.2527  YZZ=              0.6008
  YYZ=             -0.0000  XYZ=              0.0000
 Hexadecapole moment (field-independent basis, Debye-Ang**3):
 XXXX=            -17.1350 YYYY=           -109.3355 ZZZZ=            -16.8341 XXXY=             -0.2810
 XXXZ=             -0.0000 YYYX=             -6.1172 YYYZ=             -0.0000 ZZZX=             -0.0000
 ZZZY=             -0.0000 XXYY=            -20.5455 XXZZ=             -5.9085 YYZZ=            -25.1759
 XXYZ=             -0.0000 YYXZ=             -0.0000 ZZXY=              0.6081
 N-N= 4.093010856606D+01 E-N=-1.354597648031D+03  KE= 5.340472157357D+02
 Symmetry A'   KE= 4.833024701316D+02
 Symmetry A"   KE= 5.074474560404D+01
  Exact polarizability:   0.000   0.000   0.000   0.000   0.000   0.000
 Approx polarizability:  13.699  -1.507  92.883   0.000   0.000   9.604
 Calling FoFJK, ICntrl=    100147 FMM=F ISym2X=1 I1Cent= 0 IOpClX= 0 NMat=1 NMatS=1 NMatT=0.
 ***** Axes restored to original set *****
 -------------------------------------------------------------------
 Center     Atomic                   Forces (Hartrees/Bohr)
 Number     Number              X              Y              Z
 -------------------------------------------------------------------
      1        8           0.007322889   -0.013502594   -0.076332633
      2       17          -0.035934910   -0.004554908    0.058239400
      3        1           0.028612021    0.018057502    0.018093233
 -------------------------------------------------------------------
 Cartesian Forces:  Max     0.076332633 RMS     0.036876060
 FormGI is forming the generalized inverse of G from B-inverse, IUseBI=4.

 GradGradGradGradGradGradGradGradGradGradGradGradGradGradGradGradGradGrad
 Berny optimization.
 Internal  Forces:  Max     0.068370791 RMS     0.046511073
 Search for a saddle point.
 Step number   1 out of a maximum of  100
 All quantities printed in internal units (Hartrees-Bohrs-Radians)
 Swapping is turned off.
 Second derivative matrix not updated -- analytic derivatives used.
 The second derivative matrix:
                          R1        R2        A1
           R1           0.00199
           R2          -0.00451   0.62387
           A1           0.00204  -0.00255   0.10662
 ITU=  0
     Eigenvalues ---    0.00192   0.10665   0.62391
 Eigenvectors required to have negative eigenvalues:
                          R1        A1        R2
   1                    0.99979  -0.01934   0.00717
 RFO step:  Lambda0=6.863026542D-02 Lambda=-7.00981135D-03.
 Linear search not attempted -- option 19 set.
 Maximum step size (   0.300) exceeded in Quadratic search.
    -- Step size scaled by   0.988
 Iteration  1 RMS(Cart)=  0.13069742 RMS(Int)=  0.01737629
 Iteration  2 RMS(Cart)=  0.01815155 RMS(Int)=  0.00021554
 Iteration  3 RMS(Cart)=  0.00019003 RMS(Int)=  0.00000002
 Iteration  4 RMS(Cart)=  0.00000003 RMS(Int)=  0.00000000
 ClnCor:  largest displacement from symmetrization is 2.04D-15 for atom     1.
 Variable       Old X    -DE/DX   Delta X   Delta X   Delta X     New X
                                 (Linear)    (Quad)   (Total)
    R1        4.12720  -0.06837   0.00000   0.20773   0.20773   4.33492
    R2        1.78541   0.03627   0.00000   0.05820   0.05820   1.84361
    A1        1.80264  -0.02236   0.00000  -0.20848  -0.20848   1.59417
         Item               Value     Threshold  Converged?
 Maximum Force            0.068371     0.000450     NO 
 RMS     Force            0.046511     0.000300     NO 
 Maximum Displacement     0.155536     0.001800     NO 
 RMS     Displacement     0.140992     0.001200     NO 
 Predicted change in Energy= 1.073472D-02
 GradGradGradGradGradGradGradGradGradGradGradGradGradGradGradGradGradGrad

                          Input orientation:                          
 ---------------------------------------------------------------------
 Center     Atomic      Atomic             Coordinates (Angstroms)
 Number     Number       Type             X           Y           Z
 ---------------------------------------------------------------------
      1          8           0        0.780610    3.604126   -0.999829
      2         17           0        2.163132    3.875710   -2.810091
      3          1           0        1.421836    4.049078   -0.414474
 ---------------------------------------------------------------------
                    Distance matrix (angstroms):
                    1          2          3
     1  O    0.000000
     2  Cl   2.293943   0.000000
     3  H    0.975599   2.513674   0.000000
 Stoichiometry    ClHO
 Framework group  CS[SG(ClHO)]
 Deg. of freedom     3
 Full point group                 CS      NOp   2
 Largest Abelian subgroup         CS      NOp   2
 Largest concise Abelian subgroup C1      NOp   1
                         Standard orientation:                         
 ---------------------------------------------------------------------
 Center     Atomic      Atomic             Coordinates (Angstroms)
 Number     Number       Type             X           Y           Z
 ---------------------------------------------------------------------
      1          8           0        0.037513    1.499009    0.000000
      2         17           0        0.037513   -0.794934   -0.000000
      3          1           0       -0.937820    1.521806    0.000000
 ---------------------------------------------------------------------
 Rotational constants (GHZ):         561.3919395           8.3794475           8.2562136
 Standard basis: SVP (5D, 7F)
 There are    29 symmetry adapted cartesian basis functions of A'  symmetry.
 There are    10 symmetry adapted cartesian basis functions of A"  symmetry.
 There are    27 symmetry adapted basis functions of A'  symmetry.
 There are    10 symmetry adapted basis functions of A"  symmetry.
    37 basis functions,    69 primitive gaussians,    39 cartesian basis functions
    13 alpha electrons       13 beta electrons
       nuclear repulsion energy        39.2912371448 Hartrees.
 NAtoms=    3 NActive=    3 NUniq=    3 SFac= 1.00D+00 NAtFMM=   60 NAOKFM=F Big=F
 Integral buffers will be    131072 words long.
 Raffenetti 2 integral format.
 Two-electron integral symmetry is turned on.
 Nuclear repulsion after empirical dispersion term =       39.2895810390 Hartrees.
 One-electron integrals computed using PRISM.
 NBasis=    37 RedAO= T EigKep=  5.29D-02  NBF=    27    10
 NBsUse=    37 1.00D-06 EigRej= -1.00D+00 NBFU=    27    10
 Initial guess from the checkpoint file:  "/tmp/Gau-14104.chk"
 B after Tr=    -0.000000    0.000000   -0.000000
         Rot=    0.999995    0.000000   -0.000000   -0.003208 Ang=  -0.37 deg.
 Initial guess orbital symmetries:
       Occupied  (A') (A') (A') (A') (A') (A") (A') (A') (A') (A')
                 (A") (A') (A")
       Virtual   (A') (A') (A') (A') (A') (A") (A') (A') (A") (A')
                 (A") (A') (A') (A") (A') (A') (A") (A') (A') (A")
                 (A') (A') (A") (A')
 ExpMin= 1.22D-01 ExpMax= 1.04D+04 ExpMxC= 1.57D+03 IAcc=2 IRadAn=         4 AccDes= 0.00D+00
 Harris functional with IExCor=  402 and IRadAn=       4 diagonalized for initial guess.
 HarFok:  IExCor=  402 AccDes= 0.00D+00 IRadAn=         4 IDoV= 1 UseB2=F ITyADJ=14
 ICtDFT=  3500011 ScaDFX=  1.000000  1.000000  1.000000  1.000000
 FoFCou: FMM=F IPFlag=           0 FMFlag=      100000 FMFlg1=           0
         NFxFlg=           0 DoJE=T BraDBF=F KetDBF=T FulRan=T
         wScrn=  0.000000 ICntrl=       500 IOpCl=  0 I1Cent=   200000004 NGrid=           0
         NMat0=    1 NMatS0=      1 NMatT0=    0 NMatD0=    1 NMtDS0=    0 NMtDT0=    0
 Petite list used in FoFCou.
 Keep R1 ints in memory in symmetry-blocked form, NReq=7153137.
 Requested convergence on RMS density matrix=1.00D-08 within 128 cycles.
 Requested convergence on MAX density matrix=1.00D-06.
 Requested convergence on             energy=1.00D-06.
 No special actions if energy rises.
 Integral accuracy reduced to 1.0D-05 until final iterations.
 Initial convergence to 1.0D-05 achieved.  Increase integral accuracy.
 SCF Done:  E(RB3LYP) =  -535.704782173     A.U. after   14 cycles
            NFock= 14  Conv=0.69D-08     -V/T= 2.0032
 Calling FoFJK, ICntrl=      2127 FMM=F ISym2X=1 I1Cent= 0 IOpClX= 0 NMat=1 NMatS=1 NMatT=0.
 ***** Axes restored to original set *****
 -------------------------------------------------------------------
 Center     Atomic                   Forces (Hartrees/Bohr)
 Number     Number              X              Y              Z
 -------------------------------------------------------------------
      1        8           0.036210386    0.005657094   -0.053918222
      2       17          -0.039553032   -0.007588825    0.052599006
      3        1           0.003342647    0.001931731    0.001319216
 -------------------------------------------------------------------
 Cartesian Forces:  Max     0.053918222 RMS     0.031012010

 GradGradGradGradGradGradGradGradGradGradGradGradGradGradGradGradGradGrad
 Berny optimization.
 FormGI is forming the generalized inverse of G from B-inverse, IUseBI=4.
 Internal  Forces:  Max     0.066245501 RMS     0.038336863
 Search for a saddle point.
 Step number   2 out of a maximum of  100
 All quantities printed in internal units (Hartrees-Bohrs-Radians)
 Swapping is turned off.
 Update second derivatives using D2CorX and points    1    2
 The second derivative matrix:
                          R1        R2        A1
           R1          -0.00134
           R2          -0.01157   0.61511
           A1           0.00563   0.00481   0.10276
 ITU=  0  0
     Eigenvalues ---   -0.00187   0.10303   0.61537
 Eigenvectors required to have negative eigenvalues:
                          R1        A1        R2
   1                    0.99832  -0.05463   0.01914
 RFO step:  Lambda0=6.500342852D-02 Lambda=-3.95157387D-04.
 Linear search not attempted -- option 19 set.
 Maximum step size (   0.300) exceeded in Quadratic search.
    -- Step size scaled by   0.304
 Iteration  1 RMS(Cart)=  0.08350933 RMS(Int)=  0.05657523
 Iteration  2 RMS(Cart)=  0.04525691 RMS(Int)=  0.00004983
 Iteration  3 RMS(Cart)=  0.00006798 RMS(Int)=  0.00000000
 Iteration  4 RMS(Cart)=  0.00000000 RMS(Int)=  0.00000000
 ClnCor:  largest displacement from symmetrization is 1.91D-15 for atom     1.
 Variable       Old X    -DE/DX   Delta X   Delta X   Delta X     New X
                                 (Linear)    (Quad)   (Total)
    R1        4.33492  -0.06625   0.00000   0.29794   0.29794   4.63287
    R2        1.84361   0.00387   0.00000   0.00839   0.00839   1.85200
    A1        1.59417  -0.00239   0.00000  -0.03406  -0.03406   1.56011
         Item               Value     Threshold  Converged?
 Maximum Force            0.066246     0.000450     NO 
 RMS     Force            0.038337     0.000300     NO 
 Maximum Displacement     0.149492     0.001800     NO 
 RMS     Displacement     0.127579     0.001200     NO 
 Predicted change in Energy= 1.955811D-02
 GradGradGradGradGradGradGradGradGradGradGradGradGradGradGradGradGradGrad

                          Input orientation:                          
 ---------------------------------------------------------------------
 Center     Atomic      Atomic             Coordinates (Angstroms)
 Number     Number       Type             X           Y           Z
 ---------------------------------------------------------------------
      1          8           0        0.743293    3.597859   -0.946218
      2         17           0        2.211194    3.881531   -2.889199
      3          1           0        1.411091    4.049525   -0.388979
 ---------------------------------------------------------------------
                    Distance matrix (angstroms):
                    1          2          3
     1  O    0.000000
     2  Cl   2.451607   0.000000
     3  H    0.980036   2.630492   0.000000
 Stoichiometry    ClHO
 Framework group  CS[SG(ClHO)]
 Deg. of freedom     3
 Full point group                 CS      NOp   2
 Largest Abelian subgroup         CS      NOp   2
 Largest concise Abelian subgroup C1      NOp   1
                         Standard orientation:                         
 ---------------------------------------------------------------------
 Center     Atomic      Atomic             Coordinates (Angstroms)
 Number     Number       Type             X           Y           Z
 ---------------------------------------------------------------------
      1          8           0        0.037692    1.603377    0.000000
      2         17           0        0.037692   -0.848230   -0.000000
      3          1           0       -0.942289    1.592902    0.000000
 ---------------------------------------------------------------------
 Rotational constants (GHZ):         555.0847467           7.3494764           7.2534388
 Standard basis: SVP (5D, 7F)
 There are    29 symmetry adapted cartesian basis functions of A'  symmetry.
 There are    10 symmetry adapted cartesian basis functions of A"  symmetry.
 There are    27 symmetry adapted basis functions of A'  symmetry.
 There are    10 symmetry adapted basis functions of A"  symmetry.
    37 basis functions,    69 primitive gaussians,    39 cartesian basis functions
    13 alpha electrons       13 beta electrons
       nuclear repulsion energy        37.0950326878 Hartrees.
 NAtoms=    3 NActive=    3 NUniq=    3 SFac= 1.00D+00 NAtFMM=   60 NAOKFM=F Big=F
 Integral buffers will be    131072 words long.
 Raffenetti 2 integral format.
 Two-electron integral symmetry is turned on.
 Nuclear repulsion after empirical dispersion term =       37.0934090229 Hartrees.
 One-electron integrals computed using PRISM.
 NBasis=    37 RedAO= T EigKep=  5.46D-02  NBF=    27    10
 NBsUse=    37 1.00D-06 EigRej= -1.00D+00 NBFU=    27    10
 Initial guess from the checkpoint file:  "/tmp/Gau-14104.chk"
 B after Tr=     0.000000   -0.000000    0.000000
         Rot=    1.000000   -0.000000    0.000000    0.000915 Ang=   0.10 deg.
 Initial guess orbital symmetries:
       Occupied  (A') (A') (A') (A') (A') (A") (A') (A') (A') (A')
                 (A") (A') (A")
       Virtual   (A') (A') (A') (A') (A') (A") (A') (A') (A") (A')
                 (A") (A') (A') (A") (A') (A') (A") (A') (A') (A")
                 (A') (A') (A") (A')
 ExpMin= 1.22D-01 ExpMax= 1.04D+04 ExpMxC= 1.57D+03 IAcc=2 IRadAn=         4 AccDes= 0.00D+00
 Harris functional with IExCor=  402 and IRadAn=       4 diagonalized for initial guess.
 HarFok:  IExCor=  402 AccDes= 0.00D+00 IRadAn=         4 IDoV= 1 UseB2=F ITyADJ=14
 ICtDFT=  3500011 ScaDFX=  1.000000  1.000000  1.000000  1.000000
 FoFCou: FMM=F IPFlag=           0 FMFlag=      100000 FMFlg1=           0
         NFxFlg=           0 DoJE=T BraDBF=F KetDBF=T FulRan=T
         wScrn=  0.000000 ICntrl=       500 IOpCl=  0 I1Cent=   200000004 NGrid=           0
         NMat0=    1 NMatS0=      1 NMatT0=    0 NMatD0=    1 NMtDS0=    0 NMtDT0=    0
 Petite list used in FoFCou.
 Keep R1 ints in memory in symmetry-blocked form, NReq=7153137.
 Requested convergence on RMS density matrix=1.00D-08 within 128 cycles.
 Requested convergence on MAX density matrix=1.00D-06.
 Requested convergence on             energy=1.00D-06.
 No special actions if energy rises.
 Integral accuracy reduced to 1.0D-05 until final iterations.
 Initial convergence to 1.0D-05 achieved.  Increase integral accuracy.
 SCF Done:  E(RB3LYP) =  -535.685651365     A.U. after   13 cycles
            NFock= 13  Conv=0.49D-08     -V/T= 2.0032
 Calling FoFJK, ICntrl=      2127 FMM=F ISym2X=1 I1Cent= 0 IOpClX= 0 NMat=1 NMatS=1 NMatT=0.
 ***** Axes restored to original set *****
 -------------------------------------------------------------------
 Center     Atomic                   Forces (Hartrees/Bohr)
 Number     Number              X              Y              Z
 -------------------------------------------------------------------
      1        8           0.035849779    0.006613926   -0.048855298
      2       17          -0.036939734   -0.006961216    0.049687544
      3        1           0.001089954    0.000347291   -0.000832246
 -------------------------------------------------------------------
 Cartesian Forces:  Max     0.049687544 RMS     0.029058651

 GradGradGradGradGradGradGradGradGradGradGradGradGradGradGradGradGradGrad
 Berny optimization.
 FormGI is forming the generalized inverse of G from B-inverse, IUseBI=4.
 Internal  Forces:  Max     0.062302204 RMS     0.035999909
 Search for a saddle point.
 Step number   3 out of a maximum of  100
 All quantities printed in internal units (Hartrees-Bohrs-Radians)
 Swapping is turned off.
 Update second derivatives using D2CorX and points    1    2    3
 The second derivative matrix:
                          R1        R2        A1
           R1          -0.01174
           R2          -0.00548   0.61306
           A1           0.01171   0.00192   0.09965
 ITU=  0  0  0
     Eigenvalues ---   -0.01301   0.10087   0.61312
 Eigenvectors required to have negative eigenvalues:
                          R1        A1        R2
   1                    0.99459  -0.10350   0.00903
 RFO step:  Lambda0=5.553948624D-02 Lambda=-7.86693520D-04.
 Linear search not attempted -- option 19 set.
 Maximum step size (   0.300) exceeded in Quadratic search.
    -- Step size scaled by   0.332
 Iteration  1 RMS(Cart)=  0.08176847 RMS(Int)=  0.05428970
 Iteration  2 RMS(Cart)=  0.04341078 RMS(Int)=  0.00004410
 Iteration  3 RMS(Cart)=  0.00006118 RMS(Int)=  0.00000000
 Iteration  4 RMS(Cart)=  0.00000000 RMS(Int)=  0.00000000
 ClnCor:  largest displacement from symmetrization is 1.54D-15 for atom     3.
 Variable       Old X    -DE/DX   Delta X   Delta X   Delta X     New X
                                 (Linear)    (Quad)   (Total)
    R1        4.63287  -0.06230   0.00000   0.29394   0.29394   4.92681
    R2        1.85200   0.00043   0.00000   0.00329   0.00329   1.85529
    A1        1.56011  -0.00250   0.00000  -0.05990  -0.05990   1.50021
         Item               Value     Threshold  Converged?
 Maximum Force            0.062302     0.000450     NO 
 RMS     Force            0.036000     0.000300     NO 
 Maximum Displacement     0.129265     0.001800     NO 
 RMS     Displacement     0.121021     0.001200     NO 
 Predicted change in Energy= 1.762525D-02
 GradGradGradGradGradGradGradGradGradGradGradGradGradGradGradGradGradGrad

                          Input orientation:                          
 ---------------------------------------------------------------------
 Center     Atomic      Atomic             Coordinates (Angstroms)
 Number     Number       Type             X           Y           Z
 ---------------------------------------------------------------------
      1          8           0        0.701711    3.590647   -0.887494
      2         17           0        2.258227    3.889243   -2.957603
      3          1           0        1.405640    4.049024   -0.379298
 ---------------------------------------------------------------------
                    Distance matrix (angstroms):
                    1          2          3
     1  O    0.000000
     2  Cl   2.607154   0.000000
     3  H    0.981779   2.720310   0.000000
 Stoichiometry    ClHO
 Framework group  CS[SG(ClHO)]
 Deg. of freedom     3
 Full point group                 CS      NOp   2
 Largest Abelian subgroup         CS      NOp   2
 Largest concise Abelian subgroup C1      NOp   1
                         Standard orientation:                         
 ---------------------------------------------------------------------
 Center     Atomic      Atomic             Coordinates (Angstroms)
 Number     Number       Type             X           Y           Z
 ---------------------------------------------------------------------
      1          8           0        0.037667    1.707341    0.000000
      2         17           0        0.037667   -0.899813   -0.000000
      3          1           0       -0.941667    1.638098    0.000000
 ---------------------------------------------------------------------
 Rotational constants (GHZ):         554.3283719           6.5161347           6.4404274
 Standard basis: SVP (5D, 7F)
 There are    29 symmetry adapted cartesian basis functions of A'  symmetry.
 There are    10 symmetry adapted cartesian basis functions of A"  symmetry.
 There are    27 symmetry adapted basis functions of A'  symmetry.
 There are    10 symmetry adapted basis functions of A"  symmetry.
    37 basis functions,    69 primitive gaussians,    39 cartesian basis functions
    13 alpha electrons       13 beta electrons
       nuclear repulsion energy        35.2230544233 Hartrees.
 NAtoms=    3 NActive=    3 NUniq=    3 SFac= 1.00D+00 NAtFMM=   60 NAOKFM=F Big=F
 Integral buffers will be    131072 words long.
 Raffenetti 2 integral format.
 Two-electron integral symmetry is turned on.
 Nuclear repulsion after empirical dispersion term =       35.2214823732 Hartrees.
 One-electron integrals computed using PRISM.
 NBasis=    37 RedAO= T EigKep=  5.53D-02  NBF=    27    10
 NBsUse=    37 1.00D-06 EigRej= -1.00D+00 NBFU=    27    10
 Initial guess from the checkpoint file:  "/tmp/Gau-14104.chk"
 B after Tr=    -0.000000    0.000000    0.000000
         Rot=    1.000000    0.000000    0.000000    0.000590 Ang=   0.07 deg.
 Initial guess orbital symmetries:
       Occupied  (A') (A') (A') (A') (A') (A") (A') (A') (A') (A')
                 (A") (A') (A")
       Virtual   (A') (A') (A') (A') (A') (A") (A') (A') (A") (A')
                 (A") (A') (A') (A") (A') (A') (A") (A') (A') (A")
                 (A') (A') (A") (A')
 ExpMin= 1.22D-01 ExpMax= 1.04D+04 ExpMxC= 1.57D+03 IAcc=2 IRadAn=         4 AccDes= 0.00D+00
 Harris functional with IExCor=  402 and IRadAn=       4 diagonalized for initial guess.
 HarFok:  IExCor=  402 AccDes= 0.00D+00 IRadAn=         4 IDoV= 1 UseB2=F ITyADJ=14
 ICtDFT=  3500011 ScaDFX=  1.000000  1.000000  1.000000  1.000000
 FoFCou: FMM=F IPFlag=           0 FMFlag=      100000 FMFlg1=           0
         NFxFlg=           0 DoJE=T BraDBF=F KetDBF=T FulRan=T
         wScrn=  0.000000 ICntrl=       500 IOpCl=  0 I1Cent=   200000004 NGrid=           0
         NMat0=    1 NMatS0=      1 NMatT0=    0 NMatD0=    1 NMtDS0=    0 NMtDT0=    0
 Petite list used in FoFCou.
 Keep R1 ints in memory in symmetry-blocked form, NReq=7153137.
 Requested convergence on RMS density matrix=1.00D-08 within 128 cycles.
 Requested convergence on MAX density matrix=1.00D-06.
 Requested convergence on             energy=1.00D-06.
 No special actions if energy rises.
 Integral accuracy reduced to 1.0D-05 until final iterations.
 Initial convergence to 1.0D-05 achieved.  Increase integral accuracy.
 SCF Done:  E(RB3LYP) =  -535.668331382     A.U. after   14 cycles
            NFock= 14  Conv=0.39D-08     -V/T= 2.0031
 Calling FoFJK, ICntrl=      2127 FMM=F ISym2X=1 I1Cent= 0 IOpClX= 0 NMat=1 NMatS=1 NMatT=0.
 ***** Axes restored to original set *****
 -------------------------------------------------------------------
 Center     Atomic                   Forces (Hartrees/Bohr)
 Number     Number              X              Y              Z
 -------------------------------------------------------------------
      1        8           0.033644935    0.006654380   -0.043852762
      2       17          -0.033303775   -0.006354926    0.044444375
      3        1          -0.000341161   -0.000299454   -0.000591612
 -------------------------------------------------------------------
 Cartesian Forces:  Max     0.044444375 RMS     0.026298948

 GradGradGradGradGradGradGradGradGradGradGradGradGradGradGradGradGradGrad
 Berny optimization.
 FormGI is forming the generalized inverse of G from B-inverse, IUseBI=4.
 Internal  Forces:  Max     0.055899554 RMS     0.032277492
 Search for a saddle point.
 Step number   4 out of a maximum of  100
 All quantities printed in internal units (Hartrees-Bohrs-Radians)
 Swapping is turned off.
 Update second derivatives using D2CorX and points    2    3    4
 The second derivative matrix:
                          R1        R2        A1
           R1          -0.01900
           R2          -0.00278   0.61220
           A1           0.01348   0.00128   0.09922
 ITU=  0  0  0  0
     Eigenvalues ---   -0.02053   0.10074   0.61222
 Eigenvectors required to have negative eigenvalues:
                          R1        A1        R2
   1                    0.99371  -0.11191   0.00459
 RFO step:  Lambda0=4.616721413D-02 Lambda=-4.53479041D-04.
 Linear search not attempted -- option 19 set.
 Maximum step size (   0.300) exceeded in Quadratic search.
    -- Step size scaled by   0.359
 Iteration  1 RMS(Cart)=  0.08174298 RMS(Int)=  0.05458601
 Iteration  2 RMS(Cart)=  0.04381463 RMS(Int)=  0.00003850
 Iteration  3 RMS(Cart)=  0.00005452 RMS(Int)=  0.00000000
 Iteration  4 RMS(Cart)=  0.00000000 RMS(Int)=  0.00000000
 ClnCor:  largest displacement from symmetrization is 9.16D-16 for atom     3.
 Variable       Old X    -DE/DX   Delta X   Delta X   Delta X     New X
                                 (Linear)    (Quad)   (Total)
    R1        4.92681  -0.05590   0.00000   0.29446   0.29446   5.22127
    R2        1.85529  -0.00069   0.00000   0.00116   0.00116   1.85645
    A1        1.50021  -0.00052   0.00000  -0.05737  -0.05737   1.44284
         Item               Value     Threshold  Converged?
 Maximum Force            0.055900     0.000450     NO 
 RMS     Force            0.032277     0.000300     NO 
 Maximum Displacement     0.130948     0.001800     NO 
 RMS     Displacement     0.121541     0.001200     NO 
 Predicted change in Energy= 1.554227D-02
 GradGradGradGradGradGradGradGradGradGradGradGradGradGradGradGradGradGrad

                          Input orientation:                          
 ---------------------------------------------------------------------
 Center     Atomic      Atomic             Coordinates (Angstroms)
 Number     Number       Type             X           Y           Z
 ---------------------------------------------------------------------
      1          8           0        0.662206    3.584691   -0.827708
      2         17           0        2.305425    3.896837   -3.026897
      3          1           0        1.397947    4.047386   -0.369790
 ---------------------------------------------------------------------
                    Distance matrix (angstroms):
                    1          2          3
     1  O    0.000000
     2  Cl   2.762976   0.000000
     3  H    0.982390   2.811833   0.000000
 Stoichiometry    ClHO
 Framework group  CS[SG(ClHO)]
 Deg. of freedom     3
 Full point group                 CS      NOp   2
 Largest Abelian subgroup         CS      NOp   2
 Largest concise Abelian subgroup C1      NOp   1
                         Standard orientation:                         
 ---------------------------------------------------------------------
 Center     Atomic      Atomic             Coordinates (Angstroms)
 Number     Number       Type             X           Y           Z
 ---------------------------------------------------------------------
      1          8           0        0.037475    1.811383    0.000000
      2         17           0        0.037475   -0.951593   -0.000000
      3          1           0       -0.936883    1.686024    0.000000
 ---------------------------------------------------------------------
 Rotational constants (GHZ):         558.7732198           5.8146593           5.7547745
 Standard basis: SVP (5D, 7F)
 There are    29 symmetry adapted cartesian basis functions of A'  symmetry.
 There are    10 symmetry adapted cartesian basis functions of A"  symmetry.
 There are    27 symmetry adapted basis functions of A'  symmetry.
 There are    10 symmetry adapted basis functions of A"  symmetry.
    37 basis functions,    69 primitive gaussians,    39 cartesian basis functions
    13 alpha electrons       13 beta electrons
       nuclear repulsion energy        33.5559579324 Hartrees.
 NAtoms=    3 NActive=    3 NUniq=    3 SFac= 1.00D+00 NAtFMM=   60 NAOKFM=F Big=F
 Integral buffers will be    131072 words long.
 Raffenetti 2 integral format.
 Two-electron integral symmetry is turned on.
 Nuclear repulsion after empirical dispersion term =       33.5544536466 Hartrees.
 One-electron integrals computed using PRISM.
 NBasis=    37 RedAO= T EigKep=  5.57D-02  NBF=    27    10
 NBsUse=    37 1.00D-06 EigRej= -1.00D+00 NBFU=    27    10
 Initial guess from the checkpoint file:  "/tmp/Gau-14104.chk"
 B after Tr=    -0.000000   -0.000000   -0.000000
         Rot=    1.000000    0.000000   -0.000000    0.000641 Ang=   0.07 deg.
 Initial guess orbital symmetries:
       Occupied  (A') (A') (A') (A') (A') (A") (A') (A') (A') (A')
                 (A") (A') (A")
       Virtual   (A') (A') (A') (A') (A') (A") (A') (A") (A') (A')
                 (A") (A') (A') (A") (A') (A') (A") (A') (A') (A")
                 (A') (A') (A") (A')
 ExpMin= 1.22D-01 ExpMax= 1.04D+04 ExpMxC= 1.57D+03 IAcc=2 IRadAn=         4 AccDes= 0.00D+00
 Harris functional with IExCor=  402 and IRadAn=       4 diagonalized for initial guess.
 HarFok:  IExCor=  402 AccDes= 0.00D+00 IRadAn=         4 IDoV= 1 UseB2=F ITyADJ=14
 ICtDFT=  3500011 ScaDFX=  1.000000  1.000000  1.000000  1.000000
 FoFCou: FMM=F IPFlag=           0 FMFlag=      100000 FMFlg1=           0
         NFxFlg=           0 DoJE=T BraDBF=F KetDBF=T FulRan=T
         wScrn=  0.000000 ICntrl=       500 IOpCl=  0 I1Cent=   200000004 NGrid=           0
         NMat0=    1 NMatS0=      1 NMatT0=    0 NMatD0=    1 NMtDS0=    0 NMtDT0=    0
 Petite list used in FoFCou.
 Keep R1 ints in memory in symmetry-blocked form, NReq=7153137.
 Requested convergence on RMS density matrix=1.00D-08 within 128 cycles.
 Requested convergence on MAX density matrix=1.00D-06.
 Requested convergence on             energy=1.00D-06.
 No special actions if energy rises.
 Integral accuracy reduced to 1.0D-05 until final iterations.
 EnCoef did     2 forward-backward iterations
 Initial convergence to 1.0D-05 achieved.  Increase integral accuracy.
 SCF Done:  E(RB3LYP) =  -535.652916719     A.U. after   15 cycles
            NFock= 15  Conv=0.45D-08     -V/T= 2.0031
 Calling FoFJK, ICntrl=      2127 FMM=F ISym2X=1 I1Cent= 0 IOpClX= 0 NMat=1 NMatS=1 NMatT=0.
 ***** Axes restored to original set *****
 -------------------------------------------------------------------
 Center     Atomic                   Forces (Hartrees/Bohr)
 Number     Number              X              Y              Z
 -------------------------------------------------------------------
      1        8           0.029956197    0.006018648   -0.038625685
      2       17          -0.029055365   -0.005576454    0.038630982
      3        1          -0.000900832   -0.000442194   -0.000005297
 -------------------------------------------------------------------
 Cartesian Forces:  Max     0.038630982 RMS     0.023080083

 GradGradGradGradGradGradGradGradGradGradGradGradGradGradGradGradGradGrad
 Berny optimization.
 FormGI is forming the generalized inverse of G from B-inverse, IUseBI=4.
 Internal  Forces:  Max     0.048657640 RMS     0.028101757
 Search for a saddle point.
 Step number   5 out of a maximum of  100
 All quantities printed in internal units (Hartrees-Bohrs-Radians)
 Swapping is turned off.
 Update second derivatives using D2CorX and points    3    4    5
 The second derivative matrix:
                          R1        R2        A1
           R1          -0.02176
           R2          -0.00157   0.61176
           A1           0.01451   0.00087   0.09886
 ITU=  0  0  0  0
     Eigenvalues ---   -0.02349   0.10058   0.61177
 Eigenvectors required to have negative eigenvalues:
                          R1        A1        R2
   1                    0.99304  -0.11776   0.00261
 RFO step:  Lambda0=3.808534750D-02 Lambda=-2.34850144D-04.
 Linear search not attempted -- option 19 set.
 Maximum step size (   0.300) exceeded in Quadratic search.
    -- Step size scaled by   0.381
 Iteration  1 RMS(Cart)=  0.08179736 RMS(Int)=  0.05500387
 Iteration  2 RMS(Cart)=  0.04428794 RMS(Int)=  0.00003338
 Iteration  3 RMS(Cart)=  0.00004804 RMS(Int)=  0.00000000
 Iteration  4 RMS(Cart)=  0.00000000 RMS(Int)=  0.00000000
 ClnCor:  largest displacement from symmetrization is 2.18D-15 for atom     1.
 Variable       Old X    -DE/DX   Delta X   Delta X   Delta X     New X
                                 (Linear)    (Quad)   (Total)
    R1        5.22127  -0.04866   0.00000   0.29520   0.29520   5.51646
    R2        1.85645  -0.00089   0.00000   0.00033   0.00033   1.85678
    A1        1.44284   0.00088   0.00000  -0.05347  -0.05347   1.38937
         Item               Value     Threshold  Converged?
 Maximum Force            0.048658     0.000450     NO 
 RMS     Force            0.028102     0.000300     NO 
 Maximum Displacement     0.134012     0.001800     NO 
 RMS     Displacement     0.122479     0.001200     NO 
 Predicted change in Energy= 1.337490D-02
 GradGradGradGradGradGradGradGradGradGradGradGradGradGradGradGradGradGrad

                          Input orientation:                          
 ---------------------------------------------------------------------
 Center     Atomic      Atomic             Coordinates (Angstroms)
 Number     Number       Type             X           Y           Z
 ---------------------------------------------------------------------
      1          8           0        0.624798    3.579843   -0.767556
      2         17           0        2.352903    3.904205   -3.097813
      3          1           0        1.387877    4.044866   -0.359026
 ---------------------------------------------------------------------
                    Distance matrix (angstroms):
                    1          2          3
     1  O    0.000000
     2  Cl   2.919187   0.000000
     3  H    0.982564   2.907235   0.000000
 Stoichiometry    ClHO
 Framework group  CS[SG(ClHO)]
 Deg. of freedom     3
 Full point group                 CS      NOp   2
 Largest Abelian subgroup         CS      NOp   2
 Largest concise Abelian subgroup C1      NOp   1
                         Standard orientation:                         
 ---------------------------------------------------------------------
 Center     Atomic      Atomic             Coordinates (Angstroms)
 Number     Number       Type             X           Y           Z
 ---------------------------------------------------------------------
      1          8           0        0.037171    1.915518    0.000000
      2         17           0        0.037171   -1.003669   -0.000000
      3          1           0       -0.929267    1.738231    0.000000
 ---------------------------------------------------------------------
 Rotational constants (GHZ):         566.9766751           5.2181390           5.1705521
 Standard basis: SVP (5D, 7F)
 There are    29 symmetry adapted cartesian basis functions of A'  symmetry.
 There are    10 symmetry adapted cartesian basis functions of A"  symmetry.
 There are    27 symmetry adapted basis functions of A'  symmetry.
 There are    10 symmetry adapted basis functions of A"  symmetry.
    37 basis functions,    69 primitive gaussians,    39 cartesian basis functions
    13 alpha electrons       13 beta electrons
       nuclear repulsion energy        32.0563690100 Hartrees.
 NAtoms=    3 NActive=    3 NUniq=    3 SFac= 1.00D+00 NAtFMM=   60 NAOKFM=F Big=F
 Integral buffers will be    131072 words long.
 Raffenetti 2 integral format.
 Two-electron integral symmetry is turned on.
 Nuclear repulsion after empirical dispersion term =       32.0549480094 Hartrees.
 One-electron integrals computed using PRISM.
 NBasis=    37 RedAO= T EigKep=  5.57D-02  NBF=    27    10
 NBsUse=    37 1.00D-06 EigRej= -1.00D+00 NBFU=    27    10
 Initial guess from the checkpoint file:  "/tmp/Gau-14104.chk"
 B after Tr=     0.000000    0.000000    0.000000
         Rot=    1.000000    0.000000    0.000000    0.000671 Ang=   0.08 deg.
 Initial guess orbital symmetries:
       Occupied  (A') (A') (A') (A') (A') (A") (A') (A') (A') (A')
                 (A") (A') (A")
       Virtual   (A') (A') (A') (A') (A') (A") (A') (A") (A') (A')
                 (A") (A') (A') (A") (A') (A') (A') (A") (A') (A")
                 (A') (A') (A") (A')
 ExpMin= 1.22D-01 ExpMax= 1.04D+04 ExpMxC= 1.57D+03 IAcc=2 IRadAn=         4 AccDes= 0.00D+00
 Harris functional with IExCor=  402 and IRadAn=       4 diagonalized for initial guess.
 HarFok:  IExCor=  402 AccDes= 0.00D+00 IRadAn=         4 IDoV= 1 UseB2=F ITyADJ=14
 ICtDFT=  3500011 ScaDFX=  1.000000  1.000000  1.000000  1.000000
 FoFCou: FMM=F IPFlag=           0 FMFlag=      100000 FMFlg1=           0
         NFxFlg=           0 DoJE=T BraDBF=F KetDBF=T FulRan=T
         wScrn=  0.000000 ICntrl=       500 IOpCl=  0 I1Cent=   200000004 NGrid=           0
         NMat0=    1 NMatS0=      1 NMatT0=    0 NMatD0=    1 NMtDS0=    0 NMtDT0=    0
 Petite list used in FoFCou.
 Keep R1 ints in memory in symmetry-blocked form, NReq=7153137.
 Requested convergence on RMS density matrix=1.00D-08 within 128 cycles.
 Requested convergence on MAX density matrix=1.00D-06.
 Requested convergence on             energy=1.00D-06.
 No special actions if energy rises.
 Integral accuracy reduced to 1.0D-05 until final iterations.
 Initial convergence to 1.0D-05 achieved.  Increase integral accuracy.
 SCF Done:  E(RB3LYP) =  -535.639550549     A.U. after   16 cycles
            NFock= 16  Conv=0.57D-08     -V/T= 2.0030
 Calling FoFJK, ICntrl=      2127 FMM=F ISym2X=1 I1Cent= 0 IOpClX= 0 NMat=1 NMatS=1 NMatT=0.
 ***** Axes restored to original set *****
 -------------------------------------------------------------------
 Center     Atomic                   Forces (Hartrees/Bohr)
 Number     Number              X              Y              Z
 -------------------------------------------------------------------
      1        8           0.025805416    0.005144593   -0.033452782
      2       17          -0.024773191   -0.004758758    0.032918970
      3        1          -0.001032226   -0.000385836    0.000533813
 -------------------------------------------------------------------
 Cartesian Forces:  Max     0.033452782 RMS     0.019812986

 GradGradGradGradGradGradGradGradGradGradGradGradGradGradGradGradGradGrad
 Berny optimization.
 FormGI is forming the generalized inverse of G from B-inverse, IUseBI=4.
 Internal  Forces:  Max     0.041471077 RMS     0.023969474
 Search for a saddle point.
 Step number   6 out of a maximum of  100
 All quantities printed in internal units (Hartrees-Bohrs-Radians)
 Swapping is turned off.
 Second derivative matrix not updated -- analytic derivatives used.
 The second derivative matrix:
                          R1        R2        A1
           R1          -0.02176
           R2          -0.00157   0.61176
           A1           0.01451   0.00087   0.09886
 ITU=  0  0  0  0
     Eigenvalues ---   -0.02349   0.10058   0.61177
 Eigenvectors required to have negative eigenvalues:
                          R1        A1        R2
   1                    0.99304  -0.11776   0.00261
 RFO step:  Lambda0=3.128465444D-02 Lambda=-9.70259331D-05.
 Linear search not attempted -- option 19 set.
 Maximum step size (   0.300) exceeded in Quadratic search.
    -- Step size scaled by   0.397
 Iteration  1 RMS(Cart)=  0.08203588 RMS(Int)=  0.05558552
 Iteration  2 RMS(Cart)=  0.04486257 RMS(Int)=  0.00002877
 Iteration  3 RMS(Cart)=  0.00004194 RMS(Int)=  0.00000000
 Iteration  4 RMS(Cart)=  0.00000000 RMS(Int)=  0.00000000
 ClnCor:  largest displacement from symmetrization is 1.80D-15 for atom     1.
 Variable       Old X    -DE/DX   Delta X   Delta X   Delta X     New X
                                 (Linear)    (Quad)   (Total)
    R1        5.51646  -0.04147   0.00000   0.29622   0.29622   5.81268
    R2        1.85678  -0.00076   0.00000   0.00037   0.00037   1.85715
    A1        1.38937   0.00178   0.00000  -0.04748  -0.04748   1.34189
         Item               Value     Threshold  Converged?
 Maximum Force            0.041471     0.000450     NO 
 RMS     Force            0.023969     0.000300     NO 
 Maximum Displacement     0.138827     0.001800     NO 
 RMS     Displacement     0.124012     0.001200     NO 
 Predicted change in Energy= 1.132189D-02
 GradGradGradGradGradGradGradGradGradGradGradGradGradGradGradGradGradGrad

                          Input orientation:                          
 ---------------------------------------------------------------------
 Center     Atomic      Atomic             Coordinates (Angstroms)
 Number     Number       Type             X           Y           Z
 ---------------------------------------------------------------------
      1          8           0        0.589540    3.575941   -0.707881
      2         17           0        2.400804    3.911210   -3.171277
      3          1           0        1.375235    4.041763   -0.345237
 ---------------------------------------------------------------------
                    Distance matrix (angstroms):
                    1          2          3
     1  O    0.000000
     2  Cl   3.075939   0.000000
     3  H    0.982760   3.009209   0.000000
 Stoichiometry    ClHO
 Framework group  CS[SG(ClHO)]
 Deg. of freedom     3
 Full point group                 CS      NOp   2
 Largest Abelian subgroup         CS      NOp   2
 Largest concise Abelian subgroup C1      NOp   1
                         Standard orientation:                         
 ---------------------------------------------------------------------
 Center     Atomic      Atomic             Coordinates (Angstroms)
 Number     Number       Type             X           Y           Z
 ---------------------------------------------------------------------
      1          8           0        0.036812    2.019768   -0.000000
      2         17           0        0.036812   -1.056171    0.000000
      3          1           0       -0.920312    1.796767   -0.000000
 ---------------------------------------------------------------------
 Rotational constants (GHZ):         577.3021713           4.7060464           4.6679939
 Standard basis: SVP (5D, 7F)
 There are    29 symmetry adapted cartesian basis functions of A'  symmetry.
 There are    10 symmetry adapted cartesian basis functions of A"  symmetry.
 There are    27 symmetry adapted basis functions of A'  symmetry.
 There are    10 symmetry adapted basis functions of A"  symmetry.
    37 basis functions,    69 primitive gaussians,    39 cartesian basis functions
    13 alpha electrons       13 beta electrons
       nuclear repulsion energy        30.6942892112 Hartrees.
 NAtoms=    3 NActive=    3 NUniq=    3 SFac= 1.00D+00 NAtFMM=   60 NAOKFM=F Big=F
 Integral buffers will be    131072 words long.
 Raffenetti 2 integral format.
 Two-electron integral symmetry is turned on.
 Nuclear repulsion after empirical dispersion term =       30.6929662396 Hartrees.
 One-electron integrals computed using PRISM.
 NBasis=    37 RedAO= T EigKep=  5.56D-02  NBF=    27    10
 NBsUse=    37 1.00D-06 EigRej= -1.00D+00 NBFU=    27    10
 Initial guess from the checkpoint file:  "/tmp/Gau-14104.chk"
 B after Tr=     0.000000    0.000000   -0.000000
         Rot=    1.000000    0.000000   -0.000000    0.000687 Ang=   0.08 deg.
 Initial guess orbital symmetries:
       Occupied  (A') (A') (A') (A') (A') (A") (A') (A') (A') (A')
                 (A") (A') (A")
       Virtual   (A') (A') (A') (A') (A') (A") (A') (A") (A') (A')
                 (A") (A') (A') (A") (A') (A') (A') (A") (A') (A")
                 (A') (A') (A") (A')
 ExpMin= 1.22D-01 ExpMax= 1.04D+04 ExpMxC= 1.57D+03 IAcc=2 IRadAn=         4 AccDes= 0.00D+00
 Harris functional with IExCor=  402 and IRadAn=       4 diagonalized for initial guess.
 HarFok:  IExCor=  402 AccDes= 0.00D+00 IRadAn=         4 IDoV= 1 UseB2=F ITyADJ=14
 ICtDFT=  3500011 ScaDFX=  1.000000  1.000000  1.000000  1.000000
 FoFCou: FMM=F IPFlag=           0 FMFlag=      100000 FMFlg1=           0
         NFxFlg=           0 DoJE=T BraDBF=F KetDBF=T FulRan=T
         wScrn=  0.000000 ICntrl=       500 IOpCl=  0 I1Cent=   200000004 NGrid=           0
         NMat0=    1 NMatS0=      1 NMatT0=    0 NMatD0=    1 NMtDS0=    0 NMtDT0=    0
 Petite list used in FoFCou.
 Keep R1 ints in memory in symmetry-blocked form, NReq=7153137.
 Requested convergence on RMS density matrix=1.00D-08 within 128 cycles.
 Requested convergence on MAX density matrix=1.00D-06.
 Requested convergence on             energy=1.00D-06.
 No special actions if energy rises.
 Integral accuracy reduced to 1.0D-05 until final iterations.
 Initial convergence to 1.0D-05 achieved.  Increase integral accuracy.
 SCF Done:  E(RB3LYP) =  -535.628165456     A.U. after   18 cycles
            NFock= 18  Conv=0.94D-09     -V/T= 2.0029
 Calling FoFJK, ICntrl=      2127 FMM=F ISym2X=1 I1Cent= 0 IOpClX= 0 NMat=1 NMatS=1 NMatT=0.
 ***** Axes restored to original set *****
 -------------------------------------------------------------------
 Center     Atomic                   Forces (Hartrees/Bohr)
 Number     Number              X              Y              Z
 -------------------------------------------------------------------
      1        8           0.021888206    0.004330267   -0.028523863
      2       17          -0.020797752   -0.003979003    0.027708272
      3        1          -0.001090454   -0.000351264    0.000815590
 -------------------------------------------------------------------
 Cartesian Forces:  Max     0.028523863 RMS     0.016764912

 GradGradGradGradGradGradGradGradGradGradGradGradGradGradGradGradGradGrad
 Berny optimization.
 FormGI is forming the generalized inverse of G from B-inverse, IUseBI=4.
 Internal  Forces:  Max     0.034870327 RMS     0.020177858
 Search for a saddle point.
 Step number   7 out of a maximum of  100
 All quantities printed in internal units (Hartrees-Bohrs-Radians)
 Swapping is turned off.
 Update second derivatives using D2CorX and points    5    6    7
 The second derivative matrix:
                          R1        R2        A1
           R1          -0.01998
           R2          -0.00072   0.61212
           A1           0.01435   0.00083   0.09891
 ITU=  0  0  0  0
     Eigenvalues ---   -0.02169   0.10062   0.61212
 Eigenvectors required to have negative eigenvalues:
                          R1        A1        R2
   1                    0.99299  -0.11819   0.00128
 RFO step:  Lambda0=2.569108536D-02 Lambda=-3.70644553D-05.
 Linear search not attempted -- option 19 set.
 Maximum step size (   0.300) exceeded in Quadratic search.
    -- Step size scaled by   0.407
 Iteration  1 RMS(Cart)=  0.08245622 RMS(Int)=  0.05596289
 Iteration  2 RMS(Cart)=  0.04525502 RMS(Int)=  0.00002486
 Iteration  3 RMS(Cart)=  0.00003660 RMS(Int)=  0.00000000
 Iteration  4 RMS(Cart)=  0.00000000 RMS(Int)=  0.00000000
 ClnCor:  largest displacement from symmetrization is 2.74D-15 for atom     1.
 Variable       Old X    -DE/DX   Delta X   Delta X   Delta X     New X
                                 (Linear)    (Quad)   (Total)
    R1        5.81268  -0.03487   0.00000   0.29688   0.29688   6.10957
    R2        1.85715  -0.00074   0.00000  -0.00007  -0.00007   1.85708
    A1        1.34189   0.00223   0.00000  -0.04312  -0.04312   1.29877
         Item               Value     Threshold  Converged?
 Maximum Force            0.034870     0.000450     NO 
 RMS     Force            0.020178     0.000300     NO 
 Maximum Displacement     0.142412     0.001800     NO 
 RMS     Displacement     0.125303     0.001200     NO 
 Predicted change in Energy= 9.475990D-03
 GradGradGradGradGradGradGradGradGradGradGradGradGradGradGradGradGradGrad

                          Input orientation:                          
 ---------------------------------------------------------------------
 Center     Atomic      Atomic             Coordinates (Angstroms)
 Number     Number       Type             X           Y           Z
 ---------------------------------------------------------------------
      1          8           0        0.556025    3.572808   -0.648582
      2         17           0        2.449050    3.917959   -3.246638
      3          1           0        1.360503    4.038147   -0.329175
 ---------------------------------------------------------------------
                    Distance matrix (angstroms):
                    1          2          3
     1  O    0.000000
     2  Cl   3.233044   0.000000
     3  H    0.982724   3.116243   0.000000
 Stoichiometry    ClHO
 Framework group  CS[SG(ClHO)]
 Deg. of freedom     3
 Full point group                 CS      NOp   2
 Largest Abelian subgroup         CS      NOp   2
 Largest concise Abelian subgroup C1      NOp   1
                         Standard orientation:                         
 ---------------------------------------------------------------------
 Center     Atomic      Atomic             Coordinates (Angstroms)
 Number     Number       Type             X           Y           Z
 ---------------------------------------------------------------------
      1          8           0        0.036407    2.124069    0.000000
      2         17           0        0.036407   -1.108975   -0.000000
      3          1           0       -0.910179    1.860023    0.000000
 ---------------------------------------------------------------------
 Rotational constants (GHZ):         589.6305533           4.2641095           4.2334936
 Standard basis: SVP (5D, 7F)
 There are    29 symmetry adapted cartesian basis functions of A'  symmetry.
 There are    10 symmetry adapted cartesian basis functions of A"  symmetry.
 There are    27 symmetry adapted basis functions of A'  symmetry.
 There are    10 symmetry adapted basis functions of A"  symmetry.
    37 basis functions,    69 primitive gaussians,    39 cartesian basis functions
    13 alpha electrons       13 beta electrons
       nuclear repulsion energy        29.4548233718 Hartrees.
 NAtoms=    3 NActive=    3 NUniq=    3 SFac= 1.00D+00 NAtFMM=   60 NAOKFM=F Big=F
 Integral buffers will be    131072 words long.
 Raffenetti 2 integral format.
 Two-electron integral symmetry is turned on.
 Nuclear repulsion after empirical dispersion term =       29.4536094242 Hartrees.
 One-electron integrals computed using PRISM.
 NBasis=    37 RedAO= T EigKep=  5.55D-02  NBF=    27    10
 NBsUse=    37 1.00D-06 EigRej= -1.00D+00 NBFU=    27    10
 Initial guess from the checkpoint file:  "/tmp/Gau-14104.chk"
 B after Tr=     0.000000   -0.000000   -0.000000
         Rot=    1.000000   -0.000000   -0.000000    0.000680 Ang=   0.08 deg.
 Initial guess orbital symmetries:
       Occupied  (A') (A') (A') (A') (A') (A") (A') (A') (A') (A')
                 (A") (A') (A")
       Virtual   (A') (A') (A') (A') (A') (A") (A') (A") (A') (A')
                 (A') (A") (A') (A") (A') (A') (A') (A") (A') (A")
                 (A') (A') (A") (A')
 ExpMin= 1.22D-01 ExpMax= 1.04D+04 ExpMxC= 1.57D+03 IAcc=2 IRadAn=         4 AccDes= 0.00D+00
 Harris functional with IExCor=  402 and IRadAn=       4 diagonalized for initial guess.
 HarFok:  IExCor=  402 AccDes= 0.00D+00 IRadAn=         4 IDoV= 1 UseB2=F ITyADJ=14
 ICtDFT=  3500011 ScaDFX=  1.000000  1.000000  1.000000  1.000000
 FoFCou: FMM=F IPFlag=           0 FMFlag=      100000 FMFlg1=           0
         NFxFlg=           0 DoJE=T BraDBF=F KetDBF=T FulRan=T
         wScrn=  0.000000 ICntrl=       500 IOpCl=  0 I1Cent=   200000004 NGrid=           0
         NMat0=    1 NMatS0=      1 NMatT0=    0 NMatD0=    1 NMtDS0=    0 NMtDT0=    0
 Petite list used in FoFCou.
 Keep R1 ints in memory in symmetry-blocked form, NReq=7153137.
 Requested convergence on RMS density matrix=1.00D-08 within 128 cycles.
 Requested convergence on MAX density matrix=1.00D-06.
 Requested convergence on             energy=1.00D-06.
 No special actions if energy rises.
 Integral accuracy reduced to 1.0D-05 until final iterations.
 Initial convergence to 1.0D-05 achieved.  Increase integral accuracy.
 SCF Done:  E(RB3LYP) =  -535.618596899     A.U. after   19 cycles
            NFock= 19  Conv=0.41D-08     -V/T= 2.0029
 Calling FoFJK, ICntrl=      2127 FMM=F ISym2X=1 I1Cent= 0 IOpClX= 0 NMat=1 NMatS=1 NMatT=0.
 ***** Axes restored to original set *****
 -------------------------------------------------------------------
 Center     Atomic                   Forces (Hartrees/Bohr)
 Number     Number              X              Y              Z
 -------------------------------------------------------------------
      1        8           0.018226967    0.003525083   -0.024113895
      2       17          -0.017277451   -0.003279724    0.023133431
      3        1          -0.000949517   -0.000245359    0.000980464
 -------------------------------------------------------------------
 Cartesian Forces:  Max     0.024113895 RMS     0.014033587

 GradGradGradGradGradGradGradGradGradGradGradGradGradGradGradGradGradGrad
 Berny optimization.
 FormGI is forming the generalized inverse of G from B-inverse, IUseBI=4.
 Internal  Forces:  Max     0.029056218 RMS     0.016833395
 Search for a saddle point.
 Step number   8 out of a maximum of  100
 All quantities printed in internal units (Hartrees-Bohrs-Radians)
 Swapping is turned off.
 Update second derivatives using D2CorX and points    6    7    8
 The second derivative matrix:
                          R1        R2        A1
           R1          -0.01755
           R2          -0.00030   0.61219
           A1           0.01398   0.00076   0.09897
 ITU=  0  0  0  0
     Eigenvalues ---   -0.01921   0.10062   0.61219
 Eigenvectors required to have negative eigenvalues:
                          R1        A1        R2
   1                    0.99308  -0.11745   0.00061
 RFO step:  Lambda0=2.106949766D-02 Lambda=-1.21876708D-05.
 Linear search not attempted -- option 19 set.
 Maximum step size (   0.300) exceeded in Quadratic search.
    -- Step size scaled by   0.415
 Iteration  1 RMS(Cart)=  0.08293186 RMS(Int)=  0.05623609
 Iteration  2 RMS(Cart)=  0.04554376 RMS(Int)=  0.00002154
 Iteration  3 RMS(Cart)=  0.00003195 RMS(Int)=  0.00000000
 Iteration  4 RMS(Cart)=  0.00000000 RMS(Int)=  0.00000000
 ClnCor:  largest displacement from symmetrization is 4.42D-15 for atom     1.
 Variable       Old X    -DE/DX   Delta X   Delta X   Delta X     New X
                                 (Linear)    (Quad)   (Total)
    R1        6.10957  -0.02906   0.00000   0.29737   0.29737   6.40693
    R2        1.85708  -0.00058   0.00000  -0.00019  -0.00019   1.85689
    A1        1.29877   0.00234   0.00000  -0.03967  -0.03967   1.25910
         Item               Value     Threshold  Converged?
 Maximum Force            0.029056     0.000450     NO 
 RMS     Force            0.016833     0.000300     NO 
 Maximum Displacement     0.145315     0.001800     NO 
 RMS     Displacement     0.126427     0.001200     NO 
 Predicted change in Energy= 7.870136D-03
 GradGradGradGradGradGradGradGradGradGradGradGradGradGradGradGradGradGrad

                          Input orientation:                          
 ---------------------------------------------------------------------
 Center     Atomic      Atomic             Coordinates (Angstroms)
 Number     Number       Type             X           Y           Z
 ---------------------------------------------------------------------
      1          8           0        0.523885    3.570253   -0.589706
      2         17           0        2.497591    3.924509   -3.323536
      3          1           0        1.344102    4.034152   -0.311153
 ---------------------------------------------------------------------
                    Distance matrix (angstroms):
                    1          2          3
     1  O    0.000000
     2  Cl   3.390403   0.000000
     3  H    0.982624   3.227539   0.000000
 Stoichiometry    ClHO
 Framework group  CS[SG(ClHO)]
 Deg. of freedom     3
 Full point group                 CS      NOp   2
 Largest Abelian subgroup         CS      NOp   2
 Largest concise Abelian subgroup C1      NOp   1
                         Standard orientation:                         
 ---------------------------------------------------------------------
 Center     Atomic      Atomic             Coordinates (Angstroms)
 Number     Number       Type             X           Y           Z
 ---------------------------------------------------------------------
      1          8           0        0.035972    2.228392    0.000000
      2         17           0        0.035972   -1.162011   -0.000000
      3          1           0       -0.899303    1.927046    0.000000
 ---------------------------------------------------------------------
 Rotational constants (GHZ):         603.5028424           3.8805289           3.8557364
 Standard basis: SVP (5D, 7F)
 There are    29 symmetry adapted cartesian basis functions of A'  symmetry.
 There are    10 symmetry adapted cartesian basis functions of A"  symmetry.
 There are    27 symmetry adapted basis functions of A'  symmetry.
 There are    10 symmetry adapted basis functions of A"  symmetry.
    37 basis functions,    69 primitive gaussians,    39 cartesian basis functions
    13 alpha electrons       13 beta electrons
       nuclear repulsion energy        28.3225498860 Hartrees.
 NAtoms=    3 NActive=    3 NUniq=    3 SFac= 1.00D+00 NAtFMM=   60 NAOKFM=F Big=F
 Integral buffers will be    131072 words long.
 Raffenetti 2 integral format.
 Two-electron integral symmetry is turned on.
 Nuclear repulsion after empirical dispersion term =       28.3214507213 Hartrees.
 One-electron integrals computed using PRISM.
 NBasis=    37 RedAO= T EigKep=  5.54D-02  NBF=    27    10
 NBsUse=    37 1.00D-06 EigRej= -1.00D+00 NBFU=    27    10
 Initial guess from the checkpoint file:  "/tmp/Gau-14104.chk"
 B after Tr=    -0.000000    0.000000    0.000000
         Rot=    1.000000    0.000000    0.000000    0.000658 Ang=   0.08 deg.
 Initial guess orbital symmetries:
       Occupied  (A') (A') (A') (A') (A') (A") (A') (A') (A') (A")
                 (A') (A') (A")
       Virtual   (A') (A') (A') (A') (A') (A") (A') (A') (A") (A')
                 (A') (A") (A') (A") (A') (A') (A') (A") (A') (A")
                 (A') (A') (A") (A')
 ExpMin= 1.22D-01 ExpMax= 1.04D+04 ExpMxC= 1.57D+03 IAcc=2 IRadAn=         4 AccDes= 0.00D+00
 Harris functional with IExCor=  402 and IRadAn=       4 diagonalized for initial guess.
 HarFok:  IExCor=  402 AccDes= 0.00D+00 IRadAn=         4 IDoV= 1 UseB2=F ITyADJ=14
 ICtDFT=  3500011 ScaDFX=  1.000000  1.000000  1.000000  1.000000
 FoFCou: FMM=F IPFlag=           0 FMFlag=      100000 FMFlg1=           0
         NFxFlg=           0 DoJE=T BraDBF=F KetDBF=T FulRan=T
         wScrn=  0.000000 ICntrl=       500 IOpCl=  0 I1Cent=   200000004 NGrid=           0
         NMat0=    1 NMatS0=      1 NMatT0=    0 NMatD0=    1 NMtDS0=    0 NMtDT0=    0
 Petite list used in FoFCou.
 Keep R1 ints in memory in symmetry-blocked form, NReq=7153137.
 Requested convergence on RMS density matrix=1.00D-08 within 128 cycles.
 Requested convergence on MAX density matrix=1.00D-06.
 Requested convergence on             energy=1.00D-06.
 No special actions if energy rises.
 Integral accuracy reduced to 1.0D-05 until final iterations.
 Initial convergence to 1.0D-05 achieved.  Increase integral accuracy.
 SCF Done:  E(RB3LYP) =  -535.610633407     A.U. after   20 cycles
            NFock= 20  Conv=0.70D-08     -V/T= 2.0028
 Calling FoFJK, ICntrl=      2127 FMM=F ISym2X=1 I1Cent= 0 IOpClX= 0 NMat=1 NMatS=1 NMatT=0.
 ***** Axes restored to original set *****
 -------------------------------------------------------------------
 Center     Atomic                   Forces (Hartrees/Bohr)
 Number     Number              X              Y              Z
 -------------------------------------------------------------------
      1        8           0.014977781    0.002815722   -0.020176996
      2       17          -0.014217745   -0.002669795    0.019166736
      3        1          -0.000760036   -0.000145928    0.001010260
 -------------------------------------------------------------------
 Cartesian Forces:  Max     0.020176996 RMS     0.011631513

 GradGradGradGradGradGradGradGradGradGradGradGradGradGradGradGradGradGrad
 Berny optimization.
 FormGI is forming the generalized inverse of G from B-inverse, IUseBI=4.
 Internal  Forces:  Max     0.024010763 RMS     0.013924500
 Search for a saddle point.
 Step number   9 out of a maximum of  100
 All quantities printed in internal units (Hartrees-Bohrs-Radians)
 Swapping is turned off.
 Update second derivatives using D2CorX and points    7    8    9
 The second derivative matrix:
                          R1        R2        A1
           R1          -0.01515
           R2          -0.00005   0.61222
           A1           0.01359   0.00072   0.09903
 ITU=  0  0  0  0
     Eigenvalues ---   -0.01675   0.10062   0.61222
 Eigenvectors required to have negative eigenvalues:
                          R1        A1        R2
   1                    0.99319  -0.11654   0.00021
 RFO step:  Lambda0=1.714606244D-02 Lambda=-3.62365132D-06.
 Linear search not attempted -- option 19 set.
 Maximum step size (   0.300) exceeded in Quadratic search.
    -- Step size scaled by   0.422
 Iteration  1 RMS(Cart)=  0.08336047 RMS(Int)=  0.05640427
 Iteration  2 RMS(Cart)=  0.04573656 RMS(Int)=  0.00001875
 Iteration  3 RMS(Cart)=  0.00002798 RMS(Int)=  0.00000000
 Iteration  4 RMS(Cart)=  0.00000000 RMS(Int)=  0.00000000
 ClnCor:  largest displacement from symmetrization is 1.78D-15 for atom     2.
 Variable       Old X    -DE/DX   Delta X   Delta X   Delta X     New X
                                 (Linear)    (Quad)   (Total)
    R1        6.40693  -0.02401   0.00000   0.29766   0.29766   6.70460
    R2        1.85689  -0.00042   0.00000  -0.00022  -0.00022   1.85667
    A1        1.25910   0.00223   0.00000  -0.03738  -0.03738   1.22172
         Item               Value     Threshold  Converged?
 Maximum Force            0.024011     0.000450     NO 
 RMS     Force            0.013924     0.000300     NO 
 Maximum Displacement     0.147341     0.001800     NO 
 RMS     Displacement     0.127272     0.001200     NO 
 Predicted change in Energy= 6.477124D-03
 GradGradGradGradGradGradGradGradGradGradGradGradGradGradGradGradGradGrad

                          Input orientation:                          
 ---------------------------------------------------------------------
 Center     Atomic      Atomic             Coordinates (Angstroms)
 Number     Number       Type             X           Y           Z
 ---------------------------------------------------------------------
      1          8           0        0.492812    3.568155   -0.531124
      2         17           0        2.546355    3.930928   -3.401505
      3          1           0        1.326411    4.029831   -0.291766
 ---------------------------------------------------------------------
                    Distance matrix (angstroms):
                    1          2          3
     1  O    0.000000
     2  Cl   3.547919   0.000000
     3  H    0.982509   3.341934   0.000000
 Stoichiometry    ClHO
 Framework group  CS[SG(ClHO)]
 Deg. of freedom     3
 Full point group                 CS      NOp   2
 Largest Abelian subgroup         CS      NOp   2
 Largest concise Abelian subgroup C1      NOp   1
                         Standard orientation:                         
 ---------------------------------------------------------------------
 Center     Atomic      Atomic             Coordinates (Angstroms)
 Number     Number       Type             X           Y           Z
 ---------------------------------------------------------------------
      1          8           0        0.035510    2.332718   -0.000000
      2         17           0        0.035510   -1.215201    0.000000
      3          1           0       -0.887744    1.996672   -0.000000
 ---------------------------------------------------------------------
 Rotational constants (GHZ):         618.9311475           3.5458508           3.5256523
 Standard basis: SVP (5D, 7F)
 There are    29 symmetry adapted cartesian basis functions of A'  symmetry.
 There are    10 symmetry adapted cartesian basis functions of A"  symmetry.
 There are    27 symmetry adapted basis functions of A'  symmetry.
 There are    10 symmetry adapted basis functions of A"  symmetry.
    37 basis functions,    69 primitive gaussians,    39 cartesian basis functions
    13 alpha electrons       13 beta electrons
       nuclear repulsion energy        27.2852355030 Hartrees.
 NAtoms=    3 NActive=    3 NUniq=    3 SFac= 1.00D+00 NAtFMM=   60 NAOKFM=F Big=F
 Integral buffers will be    131072 words long.
[...]
 Integral accuracy reduced to 1.0D-05 until final iterations.
 Initial convergence to 1.0D-05 achieved.  Increase integral accuracy.
 SCF Done:  E(RB3LYP) =  -535.578456569     A.U. after   46 cycles
            NFock= 46  Conv=0.31D-08     -V/T= 2.0025
 Calling FoFJK, ICntrl=      2127 FMM=F ISym2X=1 I1Cent= 0 IOpClX= 0 NMat=1 NMatS=1 NMatT=0.
 ***** Axes restored to original set *****
 -------------------------------------------------------------------
 Center     Atomic                   Forces (Hartrees/Bohr)
 Number     Number              X              Y              Z
 -------------------------------------------------------------------
      1        8           0.000382746    0.000048366   -0.000620978
      2       17          -0.000374772   -0.000043272    0.000626296
      3        1          -0.000007974   -0.000005094   -0.000005319
 -------------------------------------------------------------------
 Cartesian Forces:  Max     0.000626296 RMS     0.000344664

 GradGradGradGradGradGradGradGradGradGradGradGradGradGradGradGradGradGrad
 Berny optimization.
 FormGI is forming the generalized inverse of G from B-inverse, IUseBI=4.
 Internal  Forces:  Max     0.000731144 RMS     0.000422286
 Search for a saddle point.
 Step number  30 out of a maximum of  100
 All quantities printed in internal units (Hartrees-Bohrs-Radians)
 Swapping is turned off.
 Update second derivatives using D2CorX and points   28   29   30
 The second derivative matrix:
                          R1        R2        A1
           R1           0.00566
           R2           0.00029   0.61226
           A1           0.02403   0.00066   0.09967
 ITU=  0  0  0  0
     Eigenvalues ---   -0.00012   0.10545   0.61226
 Eigenvectors required to have negative eigenvalues:
                          R1        A1        R2
   1                    0.97220  -0.23414  -0.00021
 RFO step:  Lambda0=6.472609137D-04 Lambda=-3.44946275D-07.
 Linear search not attempted -- option 19 set.
 Maximum step size (   0.300) exceeded in Quadratic search.
    -- Step size scaled by   0.327
 Iteration  1 RMS(Cart)=  0.10858295 RMS(Int)=  0.05347745
 Iteration  2 RMS(Cart)=  0.04576026 RMS(Int)=  0.00816618
 Iteration  3 RMS(Cart)=  0.01144010 RMS(Int)=  0.00814059
 Iteration  4 RMS(Cart)=  0.01140423 RMS(Int)=  0.00814059
 Iteration  5 RMS(Cart)=  0.01140424 RMS(Int)=  0.00814058
 Iteration  6 RMS(Cart)=  0.01140423 RMS(Int)=  0.00814058
 Iteration  7 RMS(Cart)=  0.01140423 RMS(Int)=  0.00814058
 Iteration  8 RMS(Cart)=  0.01140423 RMS(Int)=  0.00814058
 Iteration  9 RMS(Cart)=  0.01140423 RMS(Int)=  0.00814058
 Iteration 10 RMS(Cart)=  0.01140423 RMS(Int)=  0.00814058
 Iteration 11 RMS(Cart)=  0.01140423 RMS(Int)=  0.00814058
 Iteration 12 RMS(Cart)=  0.01140423 RMS(Int)=  0.00814058
 Iteration 13 RMS(Cart)=  0.01140423 RMS(Int)=  0.00814058
 Iteration 14 RMS(Cart)=  0.01140423 RMS(Int)=  0.00814058
 Iteration 15 RMS(Cart)=  0.01140423 RMS(Int)=  0.00814058
 Iteration 16 RMS(Cart)=  0.01140423 RMS(Int)=  0.00814058
 Iteration 17 RMS(Cart)=  0.01140423 RMS(Int)=  0.00814058
 Iteration 18 RMS(Cart)=  0.01140423 RMS(Int)=  0.00814058
 Iteration 19 RMS(Cart)=  0.01140423 RMS(Int)=  0.00814058
 Iteration 20 RMS(Cart)=  0.01140423 RMS(Int)=  0.00814058
 Iteration 21 RMS(Cart)=  0.01140423 RMS(Int)=  0.00814058
 Iteration 22 RMS(Cart)=  0.01140423 RMS(Int)=  0.00814058
 Iteration 23 RMS(Cart)=  0.01140423 RMS(Int)=  0.00814058
 Iteration 24 RMS(Cart)=  0.01140423 RMS(Int)=  0.00814058
 Iteration 25 RMS(Cart)=  0.01140423 RMS(Int)=  0.00814058
 Iteration 26 RMS(Cart)=  0.01140423 RMS(Int)=  0.00814058
 Iteration 27 RMS(Cart)=  0.01140423 RMS(Int)=  0.00814058
 Iteration 28 RMS(Cart)=  0.01140423 RMS(Int)=  0.00814058
 Iteration 29 RMS(Cart)=  0.01140423 RMS(Int)=  0.00814058
 Iteration 30 RMS(Cart)=  0.01140423 RMS(Int)=  0.00814058
 Iteration 31 RMS(Cart)=  0.01140423 RMS(Int)=  0.00814058
 Iteration 32 RMS(Cart)=  0.01140423 RMS(Int)=  0.00814058
 Iteration 33 RMS(Cart)=  0.01140423 RMS(Int)=  0.00814058
 Iteration 34 RMS(Cart)=  0.01140423 RMS(Int)=  0.00814058
 Iteration 35 RMS(Cart)=  0.01140423 RMS(Int)=  0.00814058
 Iteration 36 RMS(Cart)=  0.01140423 RMS(Int)=  0.00814058
 Iteration 37 RMS(Cart)=  0.01140423 RMS(Int)=  0.00814058
 Iteration 38 RMS(Cart)=  0.01140423 RMS(Int)=  0.00814058
 Iteration 39 RMS(Cart)=  0.01140423 RMS(Int)=  0.00814058
 Iteration 40 RMS(Cart)=  0.01140423 RMS(Int)=  0.00814058
 Iteration 41 RMS(Cart)=  0.01140423 RMS(Int)=  0.00814058
 Iteration 42 RMS(Cart)=  0.01140423 RMS(Int)=  0.00814058
 Iteration 43 RMS(Cart)=  0.01140423 RMS(Int)=  0.00814058
 Iteration 44 RMS(Cart)=  0.01140423 RMS(Int)=  0.00814058
 Iteration 45 RMS(Cart)=  0.01140423 RMS(Int)=  0.00814058
 Iteration 46 RMS(Cart)=  0.01140423 RMS(Int)=  0.00814058
 Iteration 47 RMS(Cart)=  0.01140423 RMS(Int)=  0.00814058
 Iteration 48 RMS(Cart)=  0.01140423 RMS(Int)=  0.00814058
 Iteration 49 RMS(Cart)=  0.01140423 RMS(Int)=  0.00814058
 Iteration 50 RMS(Cart)=  0.01140423 RMS(Int)=  0.00814058
 Iteration 51 RMS(Cart)=  0.01140423 RMS(Int)=  0.00814058
 Iteration 52 RMS(Cart)=  0.01140423 RMS(Int)=  0.00814058
 Iteration 53 RMS(Cart)=  0.01140423 RMS(Int)=  0.00814058
 Iteration 54 RMS(Cart)=  0.01140423 RMS(Int)=  0.00814058
 Iteration 55 RMS(Cart)=  0.01140423 RMS(Int)=  0.00814058
 Iteration 56 RMS(Cart)=  0.01140423 RMS(Int)=  0.00814058
 Iteration 57 RMS(Cart)=  0.01140423 RMS(Int)=  0.00814058
 Iteration 58 RMS(Cart)=  0.01140423 RMS(Int)=  0.00814058
 Iteration 59 RMS(Cart)=  0.01140423 RMS(Int)=  0.00814058
 Iteration 60 RMS(Cart)=  0.01140423 RMS(Int)=  0.00814058
 Iteration 61 RMS(Cart)=  0.01140423 RMS(Int)=  0.00814058
 Iteration 62 RMS(Cart)=  0.01140423 RMS(Int)=  0.00814058
 Iteration 63 RMS(Cart)=  0.01140423 RMS(Int)=  0.00814058
 Iteration 64 RMS(Cart)=  0.01140423 RMS(Int)=  0.00814058
 Iteration 65 RMS(Cart)=  0.01140423 RMS(Int)=  0.00814058
 Iteration 66 RMS(Cart)=  0.01140423 RMS(Int)=  0.00814058
 Iteration 67 RMS(Cart)=  0.01140423 RMS(Int)=  0.00814058
 Iteration 68 RMS(Cart)=  0.01140423 RMS(Int)=  0.00814058
 Iteration 69 RMS(Cart)=  0.01140423 RMS(Int)=  0.00814058
 Iteration 70 RMS(Cart)=  0.01140423 RMS(Int)=  0.00814058
 Iteration 71 RMS(Cart)=  0.01140423 RMS(Int)=  0.00814058
 Iteration 72 RMS(Cart)=  0.01140423 RMS(Int)=  0.00814058
 Iteration 73 RMS(Cart)=  0.01140423 RMS(Int)=  0.00814058
 Iteration 74 RMS(Cart)=  0.01140423 RMS(Int)=  0.00814058
 Iteration 75 RMS(Cart)=  0.01140423 RMS(Int)=  0.00814058
 Iteration 76 RMS(Cart)=  0.01140423 RMS(Int)=  0.00814058
 Iteration 77 RMS(Cart)=  0.01140423 RMS(Int)=  0.00814058
 Iteration 78 RMS(Cart)=  0.01140423 RMS(Int)=  0.00814058
 Iteration 79 RMS(Cart)=  0.01140423 RMS(Int)=  0.00814058
 Iteration 80 RMS(Cart)=  0.01140423 RMS(Int)=  0.00814058
 Iteration 81 RMS(Cart)=  0.01140423 RMS(Int)=  0.00814058
 Iteration 82 RMS(Cart)=  0.01140423 RMS(Int)=  0.00814058
 Iteration 83 RMS(Cart)=  0.01140423 RMS(Int)=  0.00814058
 Iteration 84 RMS(Cart)=  0.01140423 RMS(Int)=  0.00814058
 Iteration 85 RMS(Cart)=  0.01140423 RMS(Int)=  0.00814058
 Iteration 86 RMS(Cart)=  0.01140423 RMS(Int)=  0.00814058
 Iteration 87 RMS(Cart)=  0.01140423 RMS(Int)=  0.00814058
 Iteration 88 RMS(Cart)=  0.01140423 RMS(Int)=  0.00814058
 Iteration 89 RMS(Cart)=  0.01140423 RMS(Int)=  0.00814058
 Iteration 90 RMS(Cart)=  0.01140423 RMS(Int)=  0.00814058
 Iteration 91 RMS(Cart)=  0.01140423 RMS(Int)=  0.00814058
 Iteration 92 RMS(Cart)=  0.01140423 RMS(Int)=  0.00814058
 Iteration 93 RMS(Cart)=  0.01140423 RMS(Int)=  0.00814058
 Iteration 94 RMS(Cart)=  0.01140423 RMS(Int)=  0.00814058
 Iteration 95 RMS(Cart)=  0.01140423 RMS(Int)=  0.00814058
 Iteration 96 RMS(Cart)=  0.01140423 RMS(Int)=  0.00814058
 Iteration 97 RMS(Cart)=  0.01140423 RMS(Int)=  0.00814058
 Iteration 98 RMS(Cart)=  0.01140423 RMS(Int)=  0.00814058
 Iteration 99 RMS(Cart)=  0.01140423 RMS(Int)=  0.00814058
 Iteration100 RMS(Cart)=  0.01140423 RMS(Int)=  0.00814058
 New curvilinear step not converged.
 ITry= 1 IFail=1 DXMaxC= 1.61D-01 DCOld= 1.00D+10 DXMaxT= 3.00D-01 DXLimC= 3.00D+00 Rises=F
 Iteration  1 RMS(Cart)=  0.10576709 RMS(Int)=  0.03612641
 Iteration  2 RMS(Cart)=  0.03047497 RMS(Int)=  0.00000014
 Iteration  3 RMS(Cart)=  0.00000019 RMS(Int)=  0.00000000
 ITry= 2 IFail=0 DXMaxC= 1.44D-01 DCOld= 1.00D+10 DXMaxT= 3.00D-01 DXLimC= 3.00D+00 Rises=F
 ClnCor:  largest displacement from symmetrization is 8.92D-15 for atom     1.
 Variable       Old X    -DE/DX   Delta X   Delta X   Delta X     New X
                                 (Linear)    (Quad)   (Total)
    R1       12.58632  -0.00073   0.00000   0.29152   0.26237  12.84869
    R2        1.85503  -0.00000   0.00000  -0.00006  -0.00006   1.85497
    A1        0.06377  -0.00002   0.00000  -0.07082  -0.06374   0.00003
         Item               Value     Threshold  Converged?
 Maximum Force            0.000731     0.000450     NO 
 RMS     Force            0.000422     0.000300     NO 
 Maximum Displacement     0.144154     0.001800     NO 
 RMS     Displacement     0.133148     0.001200     NO 
 Predicted change in Energy= 1.860787D-04
 GradGradGradGradGradGradGradGradGradGradGradGradGradGradGradGradGradGrad

                          Input orientation:                          
 ---------------------------------------------------------------------
 Center     Atomic      Atomic             Coordinates (Angstroms)
 Number     Number       Type             X           Y           Z
 ---------------------------------------------------------------------
      1          8           0        0.128807    3.691406    0.815504
      2         17           0        3.605945    4.088726   -5.013836
      3          1           0        0.630826    3.748782   -0.026064
 ---------------------------------------------------------------------
                    Distance matrix (angstroms):
                    1          2          3
     1  O    0.000000
     2  Cl   6.799232   0.000000
     3  H    0.981607   5.817625   0.000000
 Stoichiometry    ClHO
 Framework group  C*V[C*(ClHO)]
 Deg. of freedom     2
 Full point group                 C*V     NOp   4
 Omega: Change in point group or standard orientation.

 Old FWG=CS   [SG(Cl1H1O1)]
 New FWG=C*V  [C*(Cl1H1O1)]
 Largest Abelian subgroup         C2V     NOp   4
 Largest concise Abelian subgroup C1      NOp   1
                         Standard orientation:                         
 ---------------------------------------------------------------------
 Center     Atomic      Atomic             Coordinates (Angstroms)
 Number     Number       Type             X           Y           Z
 ---------------------------------------------------------------------
      1          8           0       -0.000000    0.000000    4.483406
      2         17           0        0.000000   -0.000000   -2.315826
      3          1           0       -0.000000    0.000000    3.501799
 ---------------------------------------------------------------------
 Rotational constants (GHZ):           0.0000000           0.9704331           0.9704331
 Standard basis: SVP (5D, 7F)
 There are    21 symmetry adapted cartesian basis functions of A1  symmetry.
 There are     2 symmetry adapted cartesian basis functions of A2  symmetry.
 There are     8 symmetry adapted cartesian basis functions of B1  symmetry.
 There are     8 symmetry adapted cartesian basis functions of B2  symmetry.
 There are    19 symmetry adapted basis functions of A1  symmetry.
 There are     2 symmetry adapted basis functions of A2  symmetry.
 There are     8 symmetry adapted basis functions of B1  symmetry.
 There are     8 symmetry adapted basis functions of B2  symmetry.
    37 basis functions,    69 primitive gaussians,    39 cartesian basis functions
    13 alpha electrons       13 beta electrons
       nuclear repulsion energy        16.4438193264 Hartrees.
 NAtoms=    3 NActive=    3 NUniq=    3 SFac= 1.00D+00 NAtFMM=   60 NAOKFM=F Big=F
 Integral buffers will be    131072 words long.
 Raffenetti 2 integral format.
 Two-electron integral symmetry is turned on.
 Nuclear repulsion after empirical dispersion term =       16.4435508159 Hartrees.
 One-electron integrals computed using PRISM.
 NBasis=    37 RedAO= T EigKep=  5.60D-02  NBF=    19     2     8     8
 NBsUse=    37 1.00D-06 EigRej= -1.00D+00 NBFU=    19     2     8     8
 Initial guess from the checkpoint file:  "/tmp/Gau-14104.chk"
 B after Tr=     0.000000    0.000000   -0.000000
         Rot=    0.707107   -0.707107   -0.000591    0.000007 Ang= -90.00 deg.
 Initial guess orbital symmetries:
       Occupied  (SG) (SG) (SG) (PI) (SG) (PI) (SG) (SG) (SG) (?A)
                 (SG) (?A) (?A)
       Virtual   (?A) (SG) (SG) (SG) (?B) (?B) (?B) (?B) (?B) (PI)
                 (SG) (SG) (PI) (PI) (PI) (SG) (?C) (?C) (?C) (?C)
                 (?C) (?C) (?C) (?C)
 ExpMin= 1.22D-01 ExpMax= 1.04D+04 ExpMxC= 1.57D+03 IAcc=2 IRadAn=         4 AccDes= 0.00D+00
 Harris functional with IExCor=  402 and IRadAn=       4 diagonalized for initial guess.
 HarFok:  IExCor=  402 AccDes= 0.00D+00 IRadAn=         4 IDoV= 1 UseB2=F ITyADJ=14
 ICtDFT=  3500011 ScaDFX=  1.000000  1.000000  1.000000  1.000000
 FoFCou: FMM=F IPFlag=           0 FMFlag=      100000 FMFlg1=           0
         NFxFlg=           0 DoJE=T BraDBF=F KetDBF=T FulRan=T
         wScrn=  0.000000 ICntrl=       500 IOpCl=  0 I1Cent=   200000004 NGrid=           0
         NMat0=    1 NMatS0=      1 NMatT0=    0 NMatD0=    1 NMtDS0=    0 NMtDT0=    0
 Petite list used in FoFCou.
 Keep R1 ints in memory in symmetry-blocked form, NReq=7154137.
 Requested convergence on RMS density matrix=1.00D-08 within 128 cycles.
 Requested convergence on MAX density matrix=1.00D-06.
 Requested convergence on             energy=1.00D-06.
 No special actions if energy rises.
 Integral accuracy reduced to 1.0D-05 until final iterations.
 An orbital has undefined symmetry, so N**3 symmetry is turned off.
 Density matrix breaks symmetry, PCut= 1.00D-04
 Density matrix has no symmetry -- integrals replicated.
 Density matrix breaks symmetry, PCut= 1.00D-04
 Density matrix has no symmetry -- integrals replicated.
 Density matrix breaks symmetry, PCut= 1.00D-04
 Density matrix has no symmetry -- integrals replicated.
 Density matrix breaks symmetry, PCut= 1.00D-04
 Density matrix has no symmetry -- integrals replicated.
 Density matrix breaks symmetry, PCut= 1.00D-04
 Density matrix has no symmetry -- integrals replicated.
 Density matrix breaks symmetry, PCut= 1.00D-04
 Density matrix has no symmetry -- integrals replicated.
 Density matrix breaks symmetry, PCut= 1.00D-04
 Density matrix has no symmetry -- integrals replicated.
 Density matrix breaks symmetry, PCut= 1.00D-04
 Density matrix has no symmetry -- integrals replicated.
 Density matrix breaks symmetry, PCut= 1.00D-04
 Density matrix has no symmetry -- integrals replicated.
 Density matrix breaks symmetry, PCut= 1.00D-04
 Density matrix has no symmetry -- integrals replicated.
 Rare condition: small coef for last iteration:  0.000D+00
 Density matrix breaks symmetry, PCut= 1.00D-04
 Density matrix has no symmetry -- integrals replicated.
 Density matrix breaks symmetry, PCut= 1.00D-04
 Density matrix has no symmetry -- integrals replicated.
 Density matrix breaks symmetry, PCut= 1.00D-04
 Density matrix has no symmetry -- integrals replicated.
 Density matrix breaks symmetry, PCut= 1.00D-04
 Density matrix has no symmetry -- integrals replicated.
 Density matrix breaks symmetry, PCut= 1.00D-04
 Density matrix has no symmetry -- integrals replicated.
 Density matrix breaks symmetry, PCut= 1.00D-04
 Density matrix has no symmetry -- integrals replicated.
 Density matrix breaks symmetry, PCut= 1.00D-04
 Density matrix has no symmetry -- integrals replicated.
 Initial convergence to 1.0D-05 achieved.  Increase integral accuracy.
 Density matrix breaks symmetry, PCut= 1.00D-04
 Density matrix has no symmetry -- integrals replicated.
 Density matrix breaks symmetry, PCut= 1.00D-04
 Density matrix has no symmetry -- integrals replicated.
 Density matrix breaks symmetry, PCut= 1.00D-04
 Density matrix has no symmetry -- integrals replicated.
 Density matrix breaks symmetry, PCut= 1.00D-04
 Density matrix has no symmetry -- integrals replicated.
 Density matrix breaks symmetry, PCut= 1.00D-04
 Density matrix has no symmetry -- integrals replicated.
 Density matrix breaks symmetry, PCut= 1.00D-04
 Density matrix has no symmetry -- integrals replicated.
 Density matrix breaks symmetry, PCut= 1.00D-04
 Density matrix has no symmetry -- integrals replicated.
 Density matrix breaks symmetry, PCut= 1.00D-04
 Density matrix has no symmetry -- integrals replicated.
 Density matrix breaks symmetry, PCut= 1.00D-04
 Density matrix has no symmetry -- integrals replicated.
 Density matrix breaks symmetry, PCut= 1.00D-04
 Density matrix has no symmetry -- integrals replicated.
 Density matrix breaks symmetry, PCut= 1.00D-04
 Density matrix has no symmetry -- integrals replicated.
 Density matrix breaks symmetry, PCut= 1.00D-04
 Density matrix has no symmetry -- integrals replicated.
 Density matrix breaks symmetry, PCut= 1.00D-04
 Density matrix has no symmetry -- integrals replicated.
 Density matrix breaks symmetry, PCut= 1.00D-04
 Density matrix has no symmetry -- integrals replicated.
 Density matrix breaks symmetry, PCut= 1.00D-04
 Density matrix has no symmetry -- integrals replicated.
 Density matrix breaks symmetry, PCut= 1.00D-04
 Density matrix has no symmetry -- integrals replicated.
 Density matrix breaks symmetry, PCut= 1.00D-04
 Density matrix has no symmetry -- integrals replicated.
 Density matrix breaks symmetry, PCut= 1.00D-04
 Density matrix has no symmetry -- integrals replicated.
 Density matrix breaks symmetry, PCut= 1.00D-04
 Density matrix has no symmetry -- integrals replicated.
 Density matrix breaks symmetry, PCut= 1.00D-04
 Density matrix has no symmetry -- integrals replicated.
 Density matrix breaks symmetry, PCut= 1.00D-04
 Density matrix has no symmetry -- integrals replicated.
 Density matrix breaks symmetry, PCut= 1.00D-04
 Density matrix has no symmetry -- integrals replicated.
 Density matrix breaks symmetry, PCut= 1.00D-04
 Density matrix has no symmetry -- integrals replicated.
 Density matrix breaks symmetry, PCut= 1.00D-04
 Density matrix has no symmetry -- integrals replicated.
 Density matrix breaks symmetry, PCut= 1.00D-04
 Density matrix has no symmetry -- integrals replicated.
 SCF Done:  E(RB3LYP) =  -535.578269202     A.U. after   41 cycles
            NFock= 41  Conv=0.22D-08     -V/T= 2.0025
 Density matrix is not symmetric, so symmetry will not be used here.
 Density matrix is not symmetric, so symmetry will not be used here.
 Calling FoFJK, ICntrl=      2127 FMM=F ISym2X=0 I1Cent= 0 IOpClX= 0 NMat=1 NMatS=1 NMatT=0.
 ***** Axes restored to original set *****
 -------------------------------------------------------------------
 Center     Atomic                   Forces (Hartrees/Bohr)
 Number     Number              X              Y              Z
 -------------------------------------------------------------------
      1        8           0.000354572    0.000040516   -0.000594432
      2       17          -0.000359267   -0.000041052    0.000602303
      3        1           0.000004695    0.000000536   -0.000007871
 -------------------------------------------------------------------
 Cartesian Forces:  Max     0.000602303 RMS     0.000329026

 GradGradGradGradGradGradGradGradGradGradGradGradGradGradGradGradGradGrad
 Berny optimization.
 NTrRot=    -1 NTRed=     3 NAtoms=     3 NSkip=    -1 IsLin=T
 Problem with coordinate system.
 Error termination via Lnk1e in /share/apps/g16.a03/g16/l103.exe at Thu Mar  6 16:43:00 2025.
 Job cpu time:       0 days  0 hours  6 minutes  6.1 seconds.
 Elapsed time:       0 days  0 hours  0 minutes 47.1 seconds.
 File lengths (MBytes):  RWF=      6 Int=      0 D2E=      0 Chk=      1 Scr=      1
