 Entering Gaussian System, Link 0=g16
 Input=ts.gjf
 Output=ts.log
 Initial command:
 /share/apps/g16.a03/g16/l1.exe "/tmp/Gau-10737.inp" -scrdir="/tmp/"
 Entering Link 1 = /share/apps/g16.a03/g16/l1.exe PID=     10738.
  
 Copyright (c) 1988,1990,1992,1993,1995,1998,2003,2009,2016,
            Gaussian, Inc.  All Rights Reserved.
  
 This is part of the Gaussian(R) 16 program.  It is based on
 the Gaussian(R) 09 system (copyright 2009, Gaussian, Inc.),
 the Gaussian(R) 03 system (copyright 2003, Gaussian, Inc.),
 the Gaussian(R) 98 system (copyright 1998, Gaussian, Inc.),
 the Gaussian(R) 94 system (copyright 1995, Gaussian, Inc.),
 the Gaussian 92(TM) system (copyright 1992, Gaussian, Inc.),
 the Gaussian 90(TM) system (copyright 1990, Gaussian, Inc.),
 the Gaussian 88(TM) system (copyright 1988, Gaussian, Inc.),
 the Gaussian 86(TM) system (copyright 1986, Carnegie Mellon
 University), and the Gaussian 82(TM) system (copyright 1983,
 Carnegie Mellon University). Gaussian is a federally registered
 trademark of Gaussian, Inc.
  
 This software contains proprietary and confidential information,
 including trade secrets, belonging to Gaussian, Inc.
  
 This software is provided under written license and may be
 used, copied, transmitted, or stored only in accord with that
 written license.
  
 The following legend is applicable only to US Government
 contracts under FAR:
  
                    RESTRICTED RIGHTS LEGEND
  
 Use, reproduction and disclosure by the US Government is
 subject to restrictions as set forth in subparagraphs (a)
 and (c) of the Commercial Computer Software - Restricted
 Rights clause in FAR 52.227-19.
  
 Gaussian, Inc.
 340 Quinnipiac St., Bldg. 40, Wallingford CT 06492
  
  
 ---------------------------------------------------------------
 Warning -- This program may not be used in any manner that
 competes with the business of Gaussian, Inc. or will provide
 assistance to any competitor of Gaussian, Inc.  The licensee
 of this program is prohibited from giving any competitor of
 Gaussian, Inc. access to this program.  By using this program,
 the user acknowledges that Gaussian, Inc. is engaged in the
 business of creating and licensing software in the field of
 computational chemistry and represents and warrants to the
 licensee that it is not a competitor of Gaussian, Inc. and that
 it will not use this program in any manner prohibited above.
 ---------------------------------------------------------------
  

 Cite this work as:
 Gaussian 16, Revision A.03,
 M. J. Frisch, G. W. Trucks, H. B. Schlegel, G. E. Scuseria, 
 M. A. Robb, J. R. Cheeseman, G. Scalmani, V. Barone, 
 G. A. Petersson, H. Nakatsuji, X. Li, M. Caricato, A. V. Marenich, 
 J. Bloino, B. G. Janesko, R. Gomperts, B. Mennucci, H. P. Hratchian, 
 J. V. Ortiz, A. F. Izmaylov, J. L. Sonnenberg, D. Williams-Young, 
 F. Ding, F. Lipparini, F. Egidi, J. Goings, B. Peng, A. Petrone, 
 T. Henderson, D. Ranasinghe, V. G. Zakrzewski, J. Gao, N. Rega, 
 G. Zheng, W. Liang, M. Hada, M. Ehara, K. Toyota, R. Fukuda, 
 J. Hasegawa, M. Ishida, T. Nakajima, Y. Honda, O. Kitao, H. Nakai, 
 T. Vreven, K. Throssell, J. A. Montgomery, Jr., J. E. Peralta, 
 F. Ogliaro, M. J. Bearpark, J. J. Heyd, E. N. Brothers, K. N. Kudin, 
 V. N. Staroverov, T. A. Keith, R. Kobayashi, J. Normand, 
 K. Raghavachari, A. P. Rendell, J. C. Burant, S. S. Iyengar, 
 J. Tomasi, M. Cossi, J. M. Millam, M. Klene, C. Adamo, R. Cammi, 
 J. W. Ochterski, R. L. Martin, K. Morokuma, O. Farkas, 
 J. B. Foresman, and D. J. Fox, Gaussian, Inc., Wallingford CT, 2016.
 
 ******************************************
 Gaussian 16:  EM64L-G16RevA.03 25-Dec-2016
                 6-Mar-2025 
 ******************************************
 %nproc=8
 Will use up to    8 processors via shared memory.
 %mem=4000MB
 --------------------------------------------------------------------
 #opt=(noeigen,calcfc,ts,recalc=5,maxcyc=200) freq B3LYP/SVP em=GD3BJ
 --------------------------------------------------------------------
 1/5=1,6=200,10=4,11=1,18=20,26=3,38=1,71=5/1,3;
 2/9=110,12=2,17=6,18=5,40=1/2;
 3/5=18,7=101,11=2,25=1,30=1,71=2,74=-5,124=41,140=1/1,2,3;
 4//1;
 5/5=2,38=5/2;
 8/6=4,10=90,11=11/1;
 11/6=1,8=1,9=11,15=111,16=1/1,2,10;
 10/6=1,13=1/2;
 6/7=2,8=2,9=2,10=2,28=1/1;
 7/10=1,18=20,25=1/1,2,3,16;
 1/5=1,6=200,10=4,11=1,18=20,26=3,71=5/3(2);
 2/9=110/2;
 99//99;
 2/9=110/2;
 3/5=18,7=101,11=2,25=1,30=1,71=1,74=-5,124=41/1,2,3;
 4/5=5,16=3,69=1/1;
 5/5=2,38=5/2;
 7//1,2,3,16;
 1/5=1,6=200,11=1,18=20,26=3,71=5/3(-5);
 2/9=110/2;
 6/7=2,8=2,9=2,10=2,19=2,28=1/1;
 99/9=1/99;
 ----------
 ts-510.gjf
 ----------
 Symbolic Z-matrix:
 Charge =  0 Multiplicity = 1
 O                    -1.45461   2.20115  -0.73187 
 Cl                   -1.39148   0.16494   0.21782 
 H                    -0.54508   2.08442  -0.97112 
 
 Add virtual bond connecting atoms Cl2        and O1         Dist= 4.25D+00.

 GradGradGradGradGradGradGradGradGradGradGradGradGradGradGradGradGradGrad
 Berny optimization.
 Initialization pass.
                           ----------------------------
                           !    Initial Parameters    !
                           ! (Angstroms and Degrees)  !
 --------------------------                            --------------------------
 ! Name  Definition              Value          Derivative Info.                !
 --------------------------------------------------------------------------------
 ! R1    R(1,2)                  2.2477         calculate D2E/DX2 analytically  !
 ! R2    R(1,3)                  0.9477         calculate D2E/DX2 analytically  !
 ! A1    A(2,1,3)               88.1741         calculate D2E/DX2 analytically  !
 --------------------------------------------------------------------------------
 Trust Radius=3.00D-01 FncErr=1.00D-07 GrdErr=1.00D-06 EigMax=2.50D+02 EigMin=1.00D-04
 Number of steps in this run=    100 maximum allowed number of steps=    100.
 Search for a saddle point of order  1.
 GradGradGradGradGradGradGradGradGradGradGradGradGradGradGradGradGradGrad

                          Input orientation:                          
 ---------------------------------------------------------------------
 Center     Atomic      Atomic             Coordinates (Angstroms)
 Number     Number       Type             X           Y           Z
 ---------------------------------------------------------------------
      1          8           0       -1.454607    2.201145   -0.731870
      2         17           0       -1.391480    0.164939    0.217823
      3          1           0       -0.545085    2.084423   -0.971124
 ---------------------------------------------------------------------
                    Distance matrix (angstroms):
                    1          2          3
     1  O    0.000000
     2  Cl   2.247674   0.000000
     3  H    0.947680   2.411306   0.000000
 Stoichiometry    ClHO
 Framework group  CS[SG(ClHO)]
 Deg. of freedom     3
 Full point group                 CS      NOp   2
 Largest Abelian subgroup         CS      NOp   2
 Largest concise Abelian subgroup C1      NOp   1
                         Standard orientation:                         
 ---------------------------------------------------------------------
 Center     Atomic      Atomic             Coordinates (Angstroms)
 Number     Number       Type             X           Y           Z
 ---------------------------------------------------------------------
      1          8           0        0.036431    1.470794    0.000000
      2         17           0        0.036431   -0.776880   -0.000000
      3          1           0       -0.910768    1.440599    0.000000
 ---------------------------------------------------------------------
 Rotational constants (GHZ):         593.5628862           8.7525901           8.6254012
 Standard basis: SVP (5D, 7F)
 There are    29 symmetry adapted cartesian basis functions of A'  symmetry.
 There are    10 symmetry adapted cartesian basis functions of A"  symmetry.
 There are    27 symmetry adapted basis functions of A'  symmetry.
 There are    10 symmetry adapted basis functions of A"  symmetry.
    37 basis functions,    69 primitive gaussians,    39 cartesian basis functions
    13 alpha electrons       13 beta electrons
       nuclear repulsion energy        40.2168264640 Hartrees.
 NAtoms=    3 NActive=    3 NUniq=    3 SFac= 1.00D+00 NAtFMM=   60 NAOKFM=F Big=F
 Integral buffers will be    131072 words long.
 Raffenetti 2 integral format.
 Two-electron integral symmetry is turned on.
 Nuclear repulsion after empirical dispersion term =       40.2151620993 Hartrees.
 One-electron integrals computed using PRISM.
 NBasis=    37 RedAO= T EigKep=  4.96D-02  NBF=    27    10
 NBsUse=    37 1.00D-06 EigRej= -1.00D+00 NBFU=    27    10
 ExpMin= 1.22D-01 ExpMax= 1.04D+04 ExpMxC= 1.57D+03 IAcc=3 IRadAn=         5 AccDes= 0.00D+00
 Harris functional with IExCor=  402 and IRadAn=       5 diagonalized for initial guess.
 HarFok:  IExCor=  402 AccDes= 0.00D+00 IRadAn=         5 IDoV= 1 UseB2=F ITyADJ=14
 ICtDFT=  3500011 ScaDFX=  1.000000  1.000000  1.000000  1.000000
 FoFCou: FMM=F IPFlag=           0 FMFlag=      100000 FMFlg1=           0
         NFxFlg=           0 DoJE=T BraDBF=F KetDBF=T FulRan=T
         wScrn=  0.000000 ICntrl=       500 IOpCl=  0 I1Cent=   200000004 NGrid=           0
         NMat0=    1 NMatS0=      1 NMatT0=    0 NMatD0=    1 NMtDS0=    0 NMtDT0=    0
 Petite list used in FoFCou.
 Initial guess orbital symmetries:
       Occupied  (A') (A') (A') (A') (A') (A") (A') (A') (A') (A')
                 (A") (A') (A")
       Virtual   (A') (A') (A') (A') (A') (A") (A') (A') (A") (A')
                 (A") (A') (A') (A") (A') (A') (A") (A') (A') (A")
                 (A') (A") (A') (A')
 The electronic state of the initial guess is 1-A'.
 Keep R1 ints in memory in symmetry-blocked form, NReq=7153137.
 Requested convergence on RMS density matrix=1.00D-08 within 128 cycles.
 Requested convergence on MAX density matrix=1.00D-06.
 Requested convergence on             energy=1.00D-06.
 No special actions if energy rises.
 Integral accuracy reduced to 1.0D-05 until final iterations.
 Initial convergence to 1.0D-05 achieved.  Increase integral accuracy.
 SCF Done:  E(RB3LYP) =  -535.709554107     A.U. after   14 cycles
            NFock= 14  Conv=0.34D-08     -V/T= 2.0031
 DoSCS=F DFT=T ScalE2(SS,OS)=  1.000000  1.000000
 Range of M.O.s used for correlation:     1    37
 NBasis=    37 NAE=    13 NBE=    13 NFC=     0 NFV=     0
 NROrb=     37 NOA=    13 NOB=    13 NVA=    24 NVB=    24
 Symmetrizing basis deriv contribution to polar:
 IMax=3 JMax=2 DiffMx= 0.00D+00
 G2DrvN: will do     4 centers at a time, making    1 passes.
 Calling FoFCou, ICntrl=  3107 FMM=F I1Cent=   0 AccDes= 0.00D+00.
 End of G2Drv F.D. properties file   721 does not exist.
 End of G2Drv F.D. properties file   722 does not exist.
 End of G2Drv F.D. properties file   788 does not exist.
          IDoAtm=111
          Differentiating once with respect to nuclear coordinates.
 Keep R1 ints in memory in symmetry-blocked form, NReq=7127942.
          There are    12 degrees of freedom in the 1st order CPHF.  IDoFFX=6 NUNeed=     0.
      6 vectors produced by pass  0 Test12= 2.60D-15 8.33D-09 XBig12= 8.22D-02 1.91D-01.
 AX will form     6 AO Fock derivatives at one time.
      6 vectors produced by pass  1 Test12= 2.60D-15 8.33D-09 XBig12= 1.60D-01 2.06D-01.
      6 vectors produced by pass  2 Test12= 2.60D-15 8.33D-09 XBig12= 3.49D-03 1.93D-02.
      6 vectors produced by pass  3 Test12= 2.60D-15 8.33D-09 XBig12= 1.55D-04 4.25D-03.
      6 vectors produced by pass  4 Test12= 2.60D-15 8.33D-09 XBig12= 2.14D-06 5.96D-04.
      6 vectors produced by pass  5 Test12= 2.60D-15 8.33D-09 XBig12= 6.12D-09 2.60D-05.
      3 vectors produced by pass  6 Test12= 2.60D-15 8.33D-09 XBig12= 5.93D-12 9.13D-07.
      1 vectors produced by pass  7 Test12= 2.60D-15 8.33D-09 XBig12= 3.38D-15 1.49D-08.
 InvSVY:  IOpt=1 It=  1 EMax= 2.22D-16
 Solved reduced A of dimension    40 with     6 vectors.
 End of Minotr F.D. properties file   721 does not exist.
 End of Minotr F.D. properties file   722 does not exist.
 End of Minotr F.D. properties file   788 does not exist.

 **********************************************************************

            Population analysis using the SCF density.

 **********************************************************************

 Orbital symmetries:
       Occupied  (A') (A') (A') (A') (A') (A") (A') (A') (A') (A')
                 (A") (A') (A")
       Virtual   (A') (A') (A') (A') (A') (A") (A') (A') (A") (A')
                 (A") (A') (A') (A") (A') (A') (A") (A') (A') (A")
                 (A') (A') (A") (A')
 The electronic state is 1-A'.
 Alpha  occ. eigenvalues -- -101.55021 -19.22360  -9.49813  -7.27158  -7.25574
 Alpha  occ. eigenvalues --   -7.25553  -0.99789  -0.80607  -0.48257  -0.39986
 Alpha  occ. eigenvalues --   -0.35861  -0.33203  -0.31774
 Alpha virt. eigenvalues --   -0.20543   0.06039   0.46352   0.58556   0.66592
 Alpha virt. eigenvalues --    0.71687   0.72173   0.76356   0.76389   0.82422
 Alpha virt. eigenvalues --    0.82670   0.88531   0.93992   0.95673   1.00033
 Alpha virt. eigenvalues --    1.34645   1.40093   1.43293   2.20558   2.57935
 Alpha virt. eigenvalues --    2.63490   2.93542   2.95328   3.66691
          Condensed to atoms (all electrons):
               1          2          3
     1  O    7.757085   0.141302   0.290556
     2  Cl   0.141302  16.866362  -0.000770
     3  H    0.290556  -0.000770   0.514377
 Mulliken charges:
               1
     1  O   -0.188943
     2  Cl  -0.006894
     3  H    0.195837
 Sum of Mulliken charges =  -0.00000
 Mulliken charges with hydrogens summed into heavy atoms:
               1
     1  O    0.006894
     2  Cl  -0.006894
 APT charges:
               1
     1  O   -0.335453
     2  Cl  -0.022040
     3  H    0.357494
 Sum of APT charges =  -0.00000
 APT charges with hydrogens summed into heavy atoms:
               1
     1  O    0.022040
     2  Cl  -0.022040
 Electronic spatial extent (au):  <R**2>=            147.1506
 Charge=             -0.0000 electrons
 Dipole moment (field-independent basis, Debye):
    X=             -1.6621    Y=             -0.0009    Z=              0.0000  Tot=              1.6621
 Quadrupole moment (field-independent basis, Debye-Ang):
   XX=            -16.7538   YY=            -15.8458   ZZ=            -18.8056
   XY=             -2.6057   XZ=              0.0000   YZ=             -0.0000
 Traceless Quadrupole moment (field-independent basis, Debye-Ang):
   XX=              0.3813   YY=              1.2893   ZZ=             -1.6706
   XY=             -2.6057   XZ=              0.0000   YZ=             -0.0000
 Octapole moment (field-independent basis, Debye-Ang**2):
  XXX=             -2.1303  YYY=              1.3461  ZZZ=              0.0000  XYY=             -4.0951
  XXY=              3.5490  XXZ=              0.0000  XZZ=             -0.2633  YZZ=              0.5796
  YYZ=              0.0000  XYZ=              0.0000
 Hexadecapole moment (field-independent basis, Debye-Ang**3):
 XXXX=            -17.0872 YYYY=           -118.5340 ZZZZ=            -16.8638 XXXY=             -0.2802
 XXXZ=              0.0000 YYYX=             -4.0112 YYYZ=              0.0000 ZZZX=              0.0000
 ZZZY=              0.0000 XXYY=            -21.9574 XXZZ=             -5.9382 YYZZ=            -25.9638
 XXYZ=              0.0000 YYXZ=              0.0000 ZZXY=              0.5551
 N-N= 4.021516209933D+01 E-N=-1.353099372989D+03  KE= 5.340422527695D+02
 Symmetry A'   KE= 4.832891761222D+02
 Symmetry A"   KE= 5.075307664729D+01
  Exact polarizability:   0.000   0.000   0.000   0.000   0.000   0.000
 Approx polarizability:  13.972  -0.823 103.661  -0.000  -0.000   9.566
 Calling FoFJK, ICntrl=    100147 FMM=F ISym2X=1 I1Cent= 0 IOpClX= 0 NMat=1 NMatS=1 NMatT=0.
 ***** Axes restored to original set *****
 -------------------------------------------------------------------
 Center     Atomic                   Forces (Hartrees/Bohr)
 Number     Number              X              Y              Z
 -------------------------------------------------------------------
      1        8          -0.028767892   -0.057922792    0.036924066
      2       17          -0.002888118    0.059652693   -0.027485428
      3        1           0.031656010   -0.001729901   -0.009438639
 -------------------------------------------------------------------
 Cartesian Forces:  Max     0.059652693 RMS     0.034900566
 FormGI is forming the generalized inverse of G from B-inverse, IUseBI=4.

 GradGradGradGradGradGradGradGradGradGradGradGradGradGradGradGradGradGrad
 Berny optimization.
 Internal  Forces:  Max     0.065735324 RMS     0.042544591
 Search for a saddle point.
 Step number   1 out of a maximum of  100
 All quantities printed in internal units (Hartrees-Bohrs-Radians)
 Swapping is turned off.
 Second derivative matrix not updated -- analytic derivatives used.
 The second derivative matrix:
                          R1        R2        A1
           R1           0.00147
           R2          -0.00405   0.61274
           A1           0.01932  -0.00025   0.10684
 ITU=  0
     Eigenvalues ---   -0.00198   0.11027   0.61277
 Eigenvectors required to have negative eigenvalues:
                          R1        A1        R2
   1                    0.98459  -0.17476   0.00641
 RFO step:  Lambda0=6.433500636D-02 Lambda=-2.23476766D-03.
 Linear search not attempted -- option 19 set.
 Maximum step size (   0.300) exceeded in Quadratic search.
    -- Step size scaled by   0.304
 Iteration  1 RMS(Cart)=  0.08246078 RMS(Int)=  0.05265623
 Iteration  2 RMS(Cart)=  0.04174137 RMS(Int)=  0.00005358
 Iteration  3 RMS(Cart)=  0.00007114 RMS(Int)=  0.00000000
 Iteration  4 RMS(Cart)=  0.00000000 RMS(Int)=  0.00000000
 ClnCor:  largest displacement from symmetrization is 1.63D-15 for atom     3.
 Variable       Old X    -DE/DX   Delta X   Delta X   Delta X     New X
                                 (Linear)    (Quad)   (Total)
    R1        4.24749  -0.06574   0.00000   0.29102   0.29102   4.53850
    R2        1.79086   0.03298   0.00000   0.01837   0.01837   1.80923
    A1        1.53893   0.00463   0.00000  -0.07051  -0.07051   1.46841
         Item               Value     Threshold  Converged?
 Maximum Force            0.065735     0.000450     NO 
 RMS     Force            0.042545     0.000300     NO 
 Maximum Displacement     0.136543     0.001800     NO 
 RMS     Displacement     0.119183     0.001200     NO 
 Predicted change in Energy= 1.886390D-02
 GradGradGradGradGradGradGradGradGradGradGradGradGradGradGradGradGradGrad

                          Input orientation:                          
 ---------------------------------------------------------------------
 Center     Atomic      Atomic             Coordinates (Angstroms)
 Number     Number       Type             X           Y           Z
 ---------------------------------------------------------------------
      1          8           0       -1.458054    2.268318   -0.762757
      2         17           0       -1.391440    0.092684    0.252236
      3          1           0       -0.541678    2.089506   -0.974650
 ---------------------------------------------------------------------
                    Distance matrix (angstroms):
                    1          2          3
     1  O    0.000000
     2  Cl   2.401673   0.000000
     3  H    0.957402   2.492919   0.000000
 Stoichiometry    ClHO
 Framework group  CS[SG(ClHO)]
 Deg. of freedom     3
 Full point group                 CS      NOp   2
 Largest Abelian subgroup         CS      NOp   2
 Largest concise Abelian subgroup C1      NOp   1
                         Standard orientation:                         
 ---------------------------------------------------------------------
 Center     Atomic      Atomic             Coordinates (Angstroms)
 Number     Number       Type             X           Y           Z
 ---------------------------------------------------------------------
      1          8           0        0.036630    1.574088    0.000000
      2         17           0        0.036630   -0.827585   -0.000000
      3          1           0       -0.915758    1.476238    0.000000
 ---------------------------------------------------------------------
 Rotational constants (GHZ):         585.2184686           7.6909196           7.5911569
 Standard basis: SVP (5D, 7F)
 There are    29 symmetry adapted cartesian basis functions of A'  symmetry.
 There are    10 symmetry adapted cartesian basis functions of A"  symmetry.
 There are    27 symmetry adapted basis functions of A'  symmetry.
 There are    10 symmetry adapted basis functions of A"  symmetry.
    37 basis functions,    69 primitive gaussians,    39 cartesian basis functions
    13 alpha electrons       13 beta electrons
       nuclear repulsion energy        37.9962271429 Hartrees.
 NAtoms=    3 NActive=    3 NUniq=    3 SFac= 1.00D+00 NAtFMM=   60 NAOKFM=F Big=F
 Integral buffers will be    131072 words long.
 Raffenetti 2 integral format.
 Two-electron integral symmetry is turned on.
 Nuclear repulsion after empirical dispersion term =       37.9945725708 Hartrees.
 One-electron integrals computed using PRISM.
 NBasis=    37 RedAO= T EigKep=  5.18D-02  NBF=    27    10
 NBsUse=    37 1.00D-06 EigRej= -1.00D+00 NBFU=    27    10
 Initial guess from the checkpoint file:  "/tmp/Gau-10738.chk"
 B after Tr=    -0.000000   -0.000000    0.000000
         Rot=    1.000000   -0.000000   -0.000000    0.000405 Ang=   0.05 deg.
 Initial guess orbital symmetries:
       Occupied  (A') (A') (A') (A') (A') (A") (A') (A') (A') (A')
                 (A") (A') (A")
       Virtual   (A') (A') (A') (A') (A') (A") (A') (A') (A") (A')
                 (A") (A') (A') (A") (A') (A') (A") (A') (A') (A")
                 (A') (A') (A") (A')
 ExpMin= 1.22D-01 ExpMax= 1.04D+04 ExpMxC= 1.57D+03 IAcc=2 IRadAn=         4 AccDes= 0.00D+00
 Harris functional with IExCor=  402 and IRadAn=       4 diagonalized for initial guess.
 HarFok:  IExCor=  402 AccDes= 0.00D+00 IRadAn=         4 IDoV= 1 UseB2=F ITyADJ=14
 ICtDFT=  3500011 ScaDFX=  1.000000  1.000000  1.000000  1.000000
 FoFCou: FMM=F IPFlag=           0 FMFlag=      100000 FMFlg1=           0
         NFxFlg=           0 DoJE=T BraDBF=F KetDBF=T FulRan=T
         wScrn=  0.000000 ICntrl=       500 IOpCl=  0 I1Cent=   200000004 NGrid=           0
         NMat0=    1 NMatS0=      1 NMatT0=    0 NMatD0=    1 NMtDS0=    0 NMtDT0=    0
 Petite list used in FoFCou.
 Keep R1 ints in memory in symmetry-blocked form, NReq=7153137.
 Requested convergence on RMS density matrix=1.00D-08 within 128 cycles.
 Requested convergence on MAX density matrix=1.00D-06.
 Requested convergence on             energy=1.00D-06.
 No special actions if energy rises.
 Integral accuracy reduced to 1.0D-05 until final iterations.
 Initial convergence to 1.0D-05 achieved.  Increase integral accuracy.
 SCF Done:  E(RB3LYP) =  -535.690906189     A.U. after   12 cycles
            NFock= 12  Conv=0.82D-08     -V/T= 2.0031
 Calling FoFJK, ICntrl=      2127 FMM=F ISym2X=1 I1Cent= 0 IOpClX= 0 NMat=1 NMatS=1 NMatT=0.
 ***** Axes restored to original set *****
 -------------------------------------------------------------------
 Center     Atomic                   Forces (Hartrees/Bohr)
 Number     Number              X              Y              Z
 -------------------------------------------------------------------
      1        8          -0.019237302   -0.055684802    0.032767957
      2       17          -0.003057993    0.056898041   -0.026117890
      3        1           0.022295295   -0.001213239   -0.006650067
 -------------------------------------------------------------------
 Cartesian Forces:  Max     0.056898041 RMS     0.031651344

 GradGradGradGradGradGradGradGradGradGradGradGradGradGradGradGradGradGrad
 Berny optimization.
 FormGI is forming the generalized inverse of G from B-inverse, IUseBI=4.
 Internal  Forces:  Max     0.062666723 RMS     0.038718113
 Search for a saddle point.
 Step number   2 out of a maximum of  100
 All quantities printed in internal units (Hartrees-Bohrs-Radians)
 Swapping is turned off.
 Update second derivatives using D2CorX and points    1    2
 The second derivative matrix:
                          R1        R2        A1
           R1          -0.00535
           R2          -0.00457   0.61270
           A1           0.02023  -0.00018   0.10672
 ITU=  0  0
     Eigenvalues ---   -0.00893   0.11026   0.61274
 Eigenvectors required to have negative eigenvalues:
                          R1        A1        R2
   1                    0.98502  -0.17229   0.00720
 RFO step:  Lambda0=5.833779463D-02 Lambda=-1.08804863D-03.
 Linear search not attempted -- option 19 set.
 Maximum step size (   0.300) exceeded in Quadratic search.
    -- Step size scaled by   0.322
 Iteration  1 RMS(Cart)=  0.08196229 RMS(Int)=  0.05356217
 Iteration  2 RMS(Cart)=  0.04271351 RMS(Int)=  0.00004691
 Iteration  3 RMS(Cart)=  0.00006438 RMS(Int)=  0.00000000
 Iteration  4 RMS(Cart)=  0.00000000 RMS(Int)=  0.00000000
 ClnCor:  largest displacement from symmetrization is 5.37D-15 for atom     3.
 Variable       Old X    -DE/DX   Delta X   Delta X   Delta X     New X
                                 (Linear)    (Quad)   (Total)
    R1        4.53850  -0.06267   0.00000   0.29260   0.29260   4.83110
    R2        1.80923   0.02304   0.00000   0.01444   0.01444   1.82367
    A1        1.46841   0.00627   0.00000  -0.06462  -0.06462   1.40379
         Item               Value     Threshold  Converged?
 Maximum Force            0.062667     0.000450     NO 
 RMS     Force            0.038718     0.000300     NO 
 Maximum Displacement     0.139288     0.001800     NO 
 RMS     Displacement     0.120076     0.001200     NO 
 Predicted change in Energy= 1.806447D-02
 GradGradGradGradGradGradGradGradGradGradGradGradGradGradGradGradGradGrad

                          Input orientation:                          
 ---------------------------------------------------------------------
 Center     Atomic      Atomic             Coordinates (Angstroms)
 Number     Number       Type             X           Y           Z
 ---------------------------------------------------------------------
      1          8           0       -1.458016    2.334363   -0.794237
      2         17           0       -1.392243    0.018976    0.287615
      3          1           0       -0.540913    2.097169   -0.978549
 ---------------------------------------------------------------------
                    Distance matrix (angstroms):
                    1          2          3
     1  O    0.000000
     2  Cl   2.556510   0.000000
     3  H    0.965043   2.578143   0.000000
 Stoichiometry    ClHO
 Framework group  CS[SG(ClHO)]
 Deg. of freedom     3
 Full point group                 CS      NOp   2
 Largest Abelian subgroup         CS      NOp   2
 Largest concise Abelian subgroup C1      NOp   1
                         Standard orientation:                         
 ---------------------------------------------------------------------
 Center     Atomic      Atomic             Coordinates (Angstroms)
 Number     Number       Type             X           Y           Z
 ---------------------------------------------------------------------
      1          8           0        0.036601    1.677735    0.000000
      2         17           0        0.036601   -0.878776   -0.000000
      3          1           0       -0.915016    1.517314    0.000000
 ---------------------------------------------------------------------
 Rotational constants (GHZ):         584.6960942           6.8046011           6.7263212
 Standard basis: SVP (5D, 7F)
 There are    29 symmetry adapted cartesian basis functions of A'  symmetry.
 There are    10 symmetry adapted cartesian basis functions of A"  symmetry.
 There are    27 symmetry adapted basis functions of A'  symmetry.
 There are    10 symmetry adapted basis functions of A"  symmetry.
    37 basis functions,    69 primitive gaussians,    39 cartesian basis functions
    13 alpha electrons       13 beta electrons
       nuclear repulsion energy        36.0270144684 Hartrees.
 NAtoms=    3 NActive=    3 NUniq=    3 SFac= 1.00D+00 NAtFMM=   60 NAOKFM=F Big=F
 Integral buffers will be    131072 words long.
 Raffenetti 2 integral format.
 Two-electron integral symmetry is turned on.
 Nuclear repulsion after empirical dispersion term =       36.0254016146 Hartrees.
 One-electron integrals computed using PRISM.
 NBasis=    37 RedAO= T EigKep=  5.32D-02  NBF=    27    10
 NBsUse=    37 1.00D-06 EigRej= -1.00D+00 NBFU=    27    10
 Initial guess from the checkpoint file:  "/tmp/Gau-10738.chk"
 B after Tr=     0.000000   -0.000000   -0.000000
         Rot=    1.000000    0.000000   -0.000000    0.000550 Ang=   0.06 deg.
 Initial guess orbital symmetries:
       Occupied  (A') (A') (A') (A') (A') (A") (A') (A') (A') (A')
                 (A") (A') (A")
       Virtual   (A') (A') (A') (A') (A') (A") (A') (A') (A") (A')
                 (A") (A') (A') (A") (A') (A') (A") (A') (A') (A")
                 (A') (A') (A") (A')
 ExpMin= 1.22D-01 ExpMax= 1.04D+04 ExpMxC= 1.57D+03 IAcc=2 IRadAn=         4 AccDes= 0.00D+00
 Harris functional with IExCor=  402 and IRadAn=       4 diagonalized for initial guess.
 HarFok:  IExCor=  402 AccDes= 0.00D+00 IRadAn=         4 IDoV= 1 UseB2=F ITyADJ=14
 ICtDFT=  3500011 ScaDFX=  1.000000  1.000000  1.000000  1.000000
 FoFCou: FMM=F IPFlag=           0 FMFlag=      100000 FMFlg1=           0
         NFxFlg=           0 DoJE=T BraDBF=F KetDBF=T FulRan=T
         wScrn=  0.000000 ICntrl=       500 IOpCl=  0 I1Cent=   200000004 NGrid=           0
         NMat0=    1 NMatS0=      1 NMatT0=    0 NMatD0=    1 NMtDS0=    0 NMtDT0=    0
 Petite list used in FoFCou.
 Keep R1 ints in memory in symmetry-blocked form, NReq=7153137.
 Requested convergence on RMS density matrix=1.00D-08 within 128 cycles.
 Requested convergence on MAX density matrix=1.00D-06.
 Requested convergence on             energy=1.00D-06.
 No special actions if energy rises.
 Integral accuracy reduced to 1.0D-05 until final iterations.
 Initial convergence to 1.0D-05 achieved.  Increase integral accuracy.
 SCF Done:  E(RB3LYP) =  -535.673211093     A.U. after   14 cycles
            NFock= 14  Conv=0.21D-08     -V/T= 2.0031
 Calling FoFJK, ICntrl=      2127 FMM=F ISym2X=1 I1Cent= 0 IOpClX= 0 NMat=1 NMatS=1 NMatT=0.
 ***** Axes restored to original set *****
 -------------------------------------------------------------------
 Center     Atomic                   Forces (Hartrees/Bohr)
 Number     Number              X              Y              Z
 -------------------------------------------------------------------
      1        8          -0.012533491   -0.051204691    0.028460020
      2       17          -0.002833227    0.051724222   -0.023725673
      3        1           0.015366718   -0.000519531   -0.004734347
 -------------------------------------------------------------------
 Cartesian Forces:  Max     0.051724222 RMS     0.028075556

 GradGradGradGradGradGradGradGradGradGradGradGradGradGradGradGradGradGrad
 Berny optimization.
 FormGI is forming the generalized inverse of G from B-inverse, IUseBI=4.
 Internal  Forces:  Max     0.056959545 RMS     0.034334827
 Search for a saddle point.
 Step number   3 out of a maximum of  100
 All quantities printed in internal units (Hartrees-Bohrs-Radians)
 Swapping is turned off.
 Update second derivatives using D2CorX and points    1    2    3
 The second derivative matrix:
                          R1        R2        A1
           R1          -0.01454
           R2          -0.00497   0.61268
           A1           0.02135  -0.00013   0.10658
 ITU=  0  0  0
     Eigenvalues ---   -0.01824   0.11023   0.61272
 Eigenvectors required to have negative eigenvalues:
                          R1        A1        R2
   1                    0.98565  -0.16863   0.00772
 RFO step:  Lambda0=4.879074535D-02 Lambda=-4.90953048D-04.
 Linear search not attempted -- option 19 set.
 Maximum step size (   0.300) exceeded in Quadratic search.
    -- Step size scaled by   0.351
 Iteration  1 RMS(Cart)=  0.08176516 RMS(Int)=  0.05428549
 Iteration  2 RMS(Cart)=  0.04349662 RMS(Int)=  0.00004081
 Iteration  3 RMS(Cart)=  0.00005752 RMS(Int)=  0.00000000
 Iteration  4 RMS(Cart)=  0.00000000 RMS(Int)=  0.00000000
 ClnCor:  largest displacement from symmetrization is 4.00D-15 for atom     3.
 Variable       Old X    -DE/DX   Delta X   Delta X   Delta X     New X
                                 (Linear)    (Quad)   (Total)
    R1        4.83110  -0.05696   0.00000   0.29388   0.29388   5.12498
    R2        1.82367   0.01564   0.00000   0.01151   0.01151   1.83518
    A1        1.40379   0.00691   0.00000  -0.05920  -0.05920   1.34459
         Item               Value     Threshold  Converged?
 Maximum Force            0.056960     0.000450     NO 
 RMS     Force            0.034335     0.000300     NO 
 Maximum Displacement     0.142165     0.001800     NO 
 RMS     Displacement     0.121147     0.001200     NO 
 Predicted change in Energy= 1.617911D-02
 GradGradGradGradGradGradGradGradGradGradGradGradGradGradGradGradGradGrad

                          Input orientation:                          
 ---------------------------------------------------------------------
 Center     Atomic      Atomic             Coordinates (Angstroms)
 Number     Number       Type             X           Y           Z
 ---------------------------------------------------------------------
      1          8           0       -1.455093    2.399096   -0.826027
      2         17           0       -1.393940   -0.056255    0.324009
      3          1           0       -0.542139    2.107667   -0.983153
 ---------------------------------------------------------------------
                    Distance matrix (angstroms):
                    1          2          3
     1  O    0.000000
     2  Cl   2.712023   0.000000
     3  H    0.971135   2.667732   0.000000
 Stoichiometry    ClHO
 Framework group  CS[SG(ClHO)]
 Deg. of freedom     3
 Full point group                 CS      NOp   2
 Largest Abelian subgroup         CS      NOp   2
 Largest concise Abelian subgroup C1      NOp   1
                         Standard orientation:                         
 ---------------------------------------------------------------------
 Center     Atomic      Atomic             Coordinates (Angstroms)
 Number     Number       Type             X           Y           Z
 ---------------------------------------------------------------------
      1          8           0        0.036400    1.781623    0.000000
      2         17           0        0.036400   -0.930400   -0.000000
      3          1           0       -0.909996    1.563819    0.000000
 ---------------------------------------------------------------------
 Rotational constants (GHZ):         590.0135846           6.0583939           5.9968172
 Standard basis: SVP (5D, 7F)
 There are    29 symmetry adapted cartesian basis functions of A'  symmetry.
 There are    10 symmetry adapted cartesian basis functions of A"  symmetry.
 There are    27 symmetry adapted basis functions of A'  symmetry.
 There are    10 symmetry adapted basis functions of A"  symmetry.
    37 basis functions,    69 primitive gaussians,    39 cartesian basis functions
    13 alpha electrons       13 beta electrons
       nuclear repulsion energy        34.2680872197 Hartrees.
 NAtoms=    3 NActive=    3 NUniq=    3 SFac= 1.00D+00 NAtFMM=   60 NAOKFM=F Big=F
 Integral buffers will be    131072 words long.
 Raffenetti 2 integral format.
 Two-electron integral symmetry is turned on.
 Nuclear repulsion after empirical dispersion term =       34.2665336478 Hartrees.
 One-electron integrals computed using PRISM.
 NBasis=    37 RedAO= T EigKep=  5.42D-02  NBF=    27    10
 NBsUse=    37 1.00D-06 EigRej= -1.00D+00 NBFU=    27    10
 Initial guess from the checkpoint file:  "/tmp/Gau-10738.chk"
 B after Tr=    -0.000000    0.000000   -0.000000
         Rot=    1.000000    0.000000   -0.000000    0.000636 Ang=   0.07 deg.
 Initial guess orbital symmetries:
       Occupied  (A') (A') (A') (A') (A') (A") (A') (A') (A') (A')
                 (A") (A') (A")
       Virtual   (A') (A') (A') (A') (A') (A") (A') (A') (A") (A')
                 (A") (A') (A') (A") (A') (A') (A") (A') (A') (A")
                 (A') (A') (A") (A')
 ExpMin= 1.22D-01 ExpMax= 1.04D+04 ExpMxC= 1.57D+03 IAcc=2 IRadAn=         4 AccDes= 0.00D+00
 Harris functional with IExCor=  402 and IRadAn=       4 diagonalized for initial guess.
 HarFok:  IExCor=  402 AccDes= 0.00D+00 IRadAn=         4 IDoV= 1 UseB2=F ITyADJ=14
 ICtDFT=  3500011 ScaDFX=  1.000000  1.000000  1.000000  1.000000
 FoFCou: FMM=F IPFlag=           0 FMFlag=      100000 FMFlg1=           0
         NFxFlg=           0 DoJE=T BraDBF=F KetDBF=T FulRan=T
         wScrn=  0.000000 ICntrl=       500 IOpCl=  0 I1Cent=   200000004 NGrid=           0
         NMat0=    1 NMatS0=      1 NMatT0=    0 NMatD0=    1 NMtDS0=    0 NMtDT0=    0
 Petite list used in FoFCou.
 Keep R1 ints in memory in symmetry-blocked form, NReq=7153137.
 Requested convergence on RMS density matrix=1.00D-08 within 128 cycles.
 Requested convergence on MAX density matrix=1.00D-06.
 Requested convergence on             energy=1.00D-06.
 No special actions if energy rises.
 Integral accuracy reduced to 1.0D-05 until final iterations.
 Initial convergence to 1.0D-05 achieved.  Increase integral accuracy.
 SCF Done:  E(RB3LYP) =  -535.657206394     A.U. after   15 cycles
            NFock= 15  Conv=0.21D-08     -V/T= 2.0031
 Calling FoFJK, ICntrl=      2127 FMM=F ISym2X=1 I1Cent= 0 IOpClX= 0 NMat=1 NMatS=1 NMatT=0.
 ***** Axes restored to original set *****
 -------------------------------------------------------------------
 Center     Atomic                   Forces (Hartrees/Bohr)
 Number     Number              X              Y              Z
 -------------------------------------------------------------------
      1        8          -0.007692126   -0.045705911    0.024270538
      2       17          -0.002425722    0.045460469   -0.020873397
      3        1           0.010117848    0.000245441   -0.003397141
 -------------------------------------------------------------------
 Cartesian Forces:  Max     0.045705911 RMS     0.024402793

 GradGradGradGradGradGradGradGradGradGradGradGradGradGradGradGradGradGrad
 Berny optimization.
 FormGI is forming the generalized inverse of G from B-inverse, IUseBI=4.
 Internal  Forces:  Max     0.050063829 RMS     0.029743464
 Search for a saddle point.
 Step number   4 out of a maximum of  100
 All quantities printed in internal units (Hartrees-Bohrs-Radians)
 Swapping is turned off.
 Update second derivatives using D2CorX and points    2    3    4
 The second derivative matrix:
                          R1        R2        A1
           R1          -0.01896
           R2          -0.00480   0.61268
           A1           0.02143  -0.00014   0.10659
 ITU=  0  0  0  0
     Eigenvalues ---   -0.02255   0.11014   0.61272
 Eigenvectors required to have negative eigenvalues:
                          R1        A1        R2
   1                    0.98648  -0.16372   0.00742
 RFO step:  Lambda0=4.041450975D-02 Lambda=-1.91782636D-04.
 Linear search not attempted -- option 19 set.
 Maximum step size (   0.300) exceeded in Quadratic search.
    -- Step size scaled by   0.374
 Iteration  1 RMS(Cart)=  0.08182376 RMS(Int)=  0.05494280
 Iteration  2 RMS(Cart)=  0.04420015 RMS(Int)=  0.00003519
 Iteration  3 RMS(Cart)=  0.00005065 RMS(Int)=  0.00000000
 Iteration  4 RMS(Cart)=  0.00000000 RMS(Int)=  0.00000000
 ClnCor:  largest displacement from symmetrization is 1.26D-15 for atom     1.
 Variable       Old X    -DE/DX   Delta X   Delta X   Delta X     New X
                                 (Linear)    (Quad)   (Total)
    R1        5.12498  -0.05006   0.00000   0.29505   0.29505   5.42003
    R2        1.83518   0.00999   0.00000   0.00855   0.00855   1.84373
    A1        1.34459   0.00692   0.00000  -0.05362  -0.05362   1.29097
         Item               Value     Threshold  Converged?
 Maximum Force            0.050064     0.000450     NO 
 RMS     Force            0.029743     0.000300     NO 
 Maximum Displacement     0.145411     0.001800     NO 
 RMS     Displacement     0.122482     0.001200     NO 
 Predicted change in Energy= 1.405608D-02
 GradGradGradGradGradGradGradGradGradGradGradGradGradGradGradGradGradGrad

                          Input orientation:                          
 ---------------------------------------------------------------------
 Center     Atomic      Atomic             Coordinates (Angstroms)
 Number     Number       Type             X           Y           Z
 ---------------------------------------------------------------------
      1          8           0       -1.449642    2.462266   -0.857892
      2         17           0       -1.396654   -0.133203    0.361551
      3          1           0       -0.544875    2.121444   -0.988830
 ---------------------------------------------------------------------
                    Distance matrix (angstroms):
                    1          2          3
     1  O    0.000000
     2  Cl   2.868154   0.000000
     3  H    0.975658   2.762696   0.000000
 Stoichiometry    ClHO
 Framework group  CS[SG(ClHO)]
 Deg. of freedom     3
 Full point group                 CS      NOp   2
 Largest Abelian subgroup         CS      NOp   2
 Largest concise Abelian subgroup C1      NOp   1
                         Standard orientation:                         
 ---------------------------------------------------------------------
 Center     Atomic      Atomic             Coordinates (Angstroms)
 Number     Number       Type             X           Y           Z
 ---------------------------------------------------------------------
      1          8           0        0.036066    1.885696    0.000000
      2         17           0        0.036066   -0.982459   -0.000000
      3          1           0       -0.901643    1.616232    0.000000
 ---------------------------------------------------------------------
 Rotational constants (GHZ):         600.1070676           5.4247802           5.3761812
 Standard basis: SVP (5D, 7F)
 There are    29 symmetry adapted cartesian basis functions of A'  symmetry.
 There are    10 symmetry adapted cartesian basis functions of A"  symmetry.
 There are    27 symmetry adapted basis functions of A'  symmetry.
 There are    10 symmetry adapted basis functions of A"  symmetry.
    37 basis functions,    69 primitive gaussians,    39 cartesian basis functions
    13 alpha electrons       13 beta electrons
       nuclear repulsion energy        32.6874119195 Hartrees.
 NAtoms=    3 NActive=    3 NUniq=    3 SFac= 1.00D+00 NAtFMM=   60 NAOKFM=F Big=F
 Integral buffers will be    131072 words long.
 Raffenetti 2 integral format.
 Two-electron integral symmetry is turned on.
 Nuclear repulsion after empirical dispersion term =       32.6859339167 Hartrees.
 One-electron integrals computed using PRISM.
 NBasis=    37 RedAO= T EigKep=  5.46D-02  NBF=    27    10
 NBsUse=    37 1.00D-06 EigRej= -1.00D+00 NBFU=    27    10
 Initial guess from the checkpoint file:  "/tmp/Gau-10738.chk"
 B after Tr=    -0.000000   -0.000000    0.000000
         Rot=    1.000000   -0.000000    0.000000    0.000690 Ang=   0.08 deg.
 Initial guess orbital symmetries:
       Occupied  (A') (A') (A') (A') (A') (A") (A') (A') (A') (A')
                 (A") (A') (A")
       Virtual   (A') (A') (A') (A') (A') (A") (A') (A") (A') (A')
                 (A") (A') (A') (A") (A') (A') (A') (A") (A') (A")
                 (A') (A') (A") (A')
 ExpMin= 1.22D-01 ExpMax= 1.04D+04 ExpMxC= 1.57D+03 IAcc=2 IRadAn=         4 AccDes= 0.00D+00
 Harris functional with IExCor=  402 and IRadAn=       4 diagonalized for initial guess.
 HarFok:  IExCor=  402 AccDes= 0.00D+00 IRadAn=         4 IDoV= 1 UseB2=F ITyADJ=14
 ICtDFT=  3500011 ScaDFX=  1.000000  1.000000  1.000000  1.000000
 FoFCou: FMM=F IPFlag=           0 FMFlag=      100000 FMFlg1=           0
         NFxFlg=           0 DoJE=T BraDBF=F KetDBF=T FulRan=T
         wScrn=  0.000000 ICntrl=       500 IOpCl=  0 I1Cent=   200000004 NGrid=           0
         NMat0=    1 NMatS0=      1 NMatT0=    0 NMatD0=    1 NMtDS0=    0 NMtDT0=    0
 Petite list used in FoFCou.
 Keep R1 ints in memory in symmetry-blocked form, NReq=7153137.
 Requested convergence on RMS density matrix=1.00D-08 within 128 cycles.
 Requested convergence on MAX density matrix=1.00D-06.
 Requested convergence on             energy=1.00D-06.
 No special actions if energy rises.
 Integral accuracy reduced to 1.0D-05 until final iterations.
 Initial convergence to 1.0D-05 achieved.  Increase integral accuracy.
 SCF Done:  E(RB3LYP) =  -535.643192141     A.U. after   15 cycles
            NFock= 15  Conv=0.25D-08     -V/T= 2.0030
 Calling FoFJK, ICntrl=      2127 FMM=F ISym2X=1 I1Cent= 0 IOpClX= 0 NMat=1 NMatS=1 NMatT=0.
 ***** Axes restored to original set *****
 -------------------------------------------------------------------
 Center     Atomic                   Forces (Hartrees/Bohr)
 Number     Number              X              Y              Z
 -------------------------------------------------------------------
      1        8          -0.004445976   -0.039910833    0.020457051
      2       17          -0.001956897    0.039011853   -0.017952922
      3        1           0.006402873    0.000898980   -0.002504130
 -------------------------------------------------------------------
 Cartesian Forces:  Max     0.039910833 RMS     0.020889310

 GradGradGradGradGradGradGradGradGradGradGradGradGradGradGradGradGradGrad
 Berny optimization.
 FormGI is forming the generalized inverse of G from B-inverse, IUseBI=4.
 Internal  Forces:  Max     0.042970948 RMS     0.025329186
 Search for a saddle point.
 Step number   5 out of a maximum of  100
 All quantities printed in internal units (Hartrees-Bohrs-Radians)
 Swapping is turned off.
 Update second derivatives using D2CorX and points    3    4    5
 The second derivative matrix:
                          R1        R2        A1
           R1          -0.02017
           R2          -0.00409   0.61252
           A1           0.02067  -0.00003   0.10655
 ITU=  0  0  0  0
     Eigenvalues ---   -0.02348   0.10984   0.61254
 Eigenvectors required to have negative eigenvalues:
                          R1        A1        R2
   1                    0.98758  -0.15698   0.00634
 RFO step:  Lambda0=3.324569196D-02 Lambda=-6.41396623D-05.
 Linear search not attempted -- option 19 set.
 Maximum step size (   0.300) exceeded in Quadratic search.
    -- Step size scaled by   0.392
 Iteration  1 RMS(Cart)=  0.08214607 RMS(Int)=  0.05551306
 Iteration  2 RMS(Cart)=  0.04480020 RMS(Int)=  0.00003021
 Iteration  3 RMS(Cart)=  0.00004418 RMS(Int)=  0.00000000
 Iteration  4 RMS(Cart)=  0.00000000 RMS(Int)=  0.00000000
 ClnCor:  largest displacement from symmetrization is 5.76D-15 for atom     1.
 Variable       Old X    -DE/DX   Delta X   Delta X   Delta X     New X
                                 (Linear)    (Quad)   (Total)
    R1        5.42003  -0.04297   0.00000   0.29606   0.29606   5.71609
    R2        1.84373   0.00596   0.00000   0.00589   0.00589   1.84961
    A1        1.29097   0.00654   0.00000  -0.04809  -0.04809   1.24289
         Item               Value     Threshold  Converged?
 Maximum Force            0.042971     0.000450     NO 
 RMS     Force            0.025329     0.000300     NO 
 Maximum Displacement     0.148804     0.001800     NO 
 RMS     Displacement     0.124006     0.001200     NO 
 Predicted change in Energy= 1.194998D-02
 GradGradGradGradGradGradGradGradGradGradGradGradGradGradGradGradGradGrad

                          Input orientation:                          
 ---------------------------------------------------------------------
 Center     Atomic      Atomic             Coordinates (Angstroms)
 Number     Number       Type             X           Y           Z
 ---------------------------------------------------------------------
      1          8           0       -1.442150    2.523737   -0.889608
      2         17           0       -1.400441   -0.211947    0.400296
      3          1           0       -0.548580    2.138717   -0.995859
 ---------------------------------------------------------------------
                    Distance matrix (angstroms):
                    1          2          3
     1  O    0.000000
     2  Cl   3.024824   0.000000
     3  H    0.978773   2.863658   0.000000
 Stoichiometry    ClHO
 Framework group  CS[SG(ClHO)]
 Deg. of freedom     3
 Full point group                 CS      NOp   2
 Largest Abelian subgroup         CS      NOp   2
 Largest concise Abelian subgroup C1      NOp   1
                         Standard orientation:                         
 ---------------------------------------------------------------------
 Center     Atomic      Atomic             Coordinates (Angstroms)
 Number     Number       Type             X           Y           Z
 ---------------------------------------------------------------------
      1          8           0        0.035639    1.989894    0.000000
      2         17           0        0.035639   -1.034930   -0.000000
      3          1           0       -0.890982    1.674665    0.000000
 ---------------------------------------------------------------------
 Rotational constants (GHZ):         613.8803833           4.8827335           4.8442032
 Standard basis: SVP (5D, 7F)
 There are    29 symmetry adapted cartesian basis functions of A'  symmetry.
 There are    10 symmetry adapted cartesian basis functions of A"  symmetry.
 There are    27 symmetry adapted basis functions of A'  symmetry.
 There are    10 symmetry adapted basis functions of A"  symmetry.
    37 basis functions,    69 primitive gaussians,    39 cartesian basis functions
    13 alpha electrons       13 beta electrons
       nuclear repulsion energy        31.2591623907 Hartrees.
 NAtoms=    3 NActive=    3 NUniq=    3 SFac= 1.00D+00 NAtFMM=   60 NAOKFM=F Big=F
 Integral buffers will be    131072 words long.
 Raffenetti 2 integral format.
 Two-electron integral symmetry is turned on.
 Nuclear repulsion after empirical dispersion term =       31.2577755204 Hartrees.
 One-electron integrals computed using PRISM.
 NBasis=    37 RedAO= T EigKep=  5.48D-02  NBF=    27    10
 NBsUse=    37 1.00D-06 EigRej= -1.00D+00 NBFU=    27    10
 Initial guess from the checkpoint file:  "/tmp/Gau-10738.chk"
 B after Tr=     0.000000   -0.000000   -0.000000
         Rot=    1.000000   -0.000000    0.000000    0.000715 Ang=   0.08 deg.
 Initial guess orbital symmetries:
       Occupied  (A') (A') (A') (A') (A') (A") (A') (A') (A') (A')
                 (A") (A') (A")
       Virtual   (A') (A') (A') (A') (A') (A") (A') (A") (A') (A')
                 (A") (A') (A') (A") (A') (A') (A') (A") (A') (A")
                 (A') (A') (A") (A')
 ExpMin= 1.22D-01 ExpMax= 1.04D+04 ExpMxC= 1.57D+03 IAcc=2 IRadAn=         4 AccDes= 0.00D+00
 Harris functional with IExCor=  402 and IRadAn=       4 diagonalized for initial guess.
 HarFok:  IExCor=  402 AccDes= 0.00D+00 IRadAn=         4 IDoV= 1 UseB2=F ITyADJ=14
 ICtDFT=  3500011 ScaDFX=  1.000000  1.000000  1.000000  1.000000
 FoFCou: FMM=F IPFlag=           0 FMFlag=      100000 FMFlg1=           0
         NFxFlg=           0 DoJE=T BraDBF=F KetDBF=T FulRan=T
         wScrn=  0.000000 ICntrl=       500 IOpCl=  0 I1Cent=   200000004 NGrid=           0
         NMat0=    1 NMatS0=      1 NMatT0=    0 NMatD0=    1 NMtDS0=    0 NMtDT0=    0
 Petite list used in FoFCou.
 Keep R1 ints in memory in symmetry-blocked form, NReq=7153137.
 Requested convergence on RMS density matrix=1.00D-08 within 128 cycles.
 Requested convergence on MAX density matrix=1.00D-06.
 Requested convergence on             energy=1.00D-06.
 No special actions if energy rises.
 Integral accuracy reduced to 1.0D-05 until final iterations.
 Initial convergence to 1.0D-05 achieved.  Increase integral accuracy.
 SCF Done:  E(RB3LYP) =  -535.631199947     A.U. after   17 cycles
            NFock= 17  Conv=0.90D-08     -V/T= 2.0029
 Calling FoFJK, ICntrl=      2127 FMM=F ISym2X=1 I1Cent= 0 IOpClX= 0 NMat=1 NMatS=1 NMatT=0.
 ***** Axes restored to original set *****
 -------------------------------------------------------------------
 Center     Atomic                   Forces (Hartrees/Bohr)
 Number     Number              X              Y              Z
 -------------------------------------------------------------------
      1        8          -0.002429376   -0.034283167    0.017121948
      2       17          -0.001499282    0.032943695   -0.015210083
      3        1           0.003928658    0.001339472   -0.001911865
 -------------------------------------------------------------------
 Cartesian Forces:  Max     0.034283167 RMS     0.017682898

 GradGradGradGradGradGradGradGradGradGradGradGradGradGradGradGradGradGrad
 Berny optimization.
 FormGI is forming the generalized inverse of G from B-inverse, IUseBI=4.
 Internal  Forces:  Max     0.036300442 RMS     0.021317634
 Search for a saddle point.
 Step number   6 out of a maximum of  100
 All quantities printed in internal units (Hartrees-Bohrs-Radians)
 Swapping is turned off.
 Second derivative matrix not updated -- analytic derivatives used.
 The second derivative matrix:
                          R1        R2        A1
           R1          -0.02017
           R2          -0.00409   0.61252
           A1           0.02067  -0.00003   0.10655
 ITU=  0  0  0  0
     Eigenvalues ---   -0.02348   0.10984   0.61254
 Eigenvectors required to have negative eigenvalues:
                          R1        A1        R2
   1                    0.98758  -0.15698   0.00634
 RFO step:  Lambda0=2.684739745D-02 Lambda=-2.01542382D-05.
 Linear search not attempted -- option 19 set.
 Maximum step size (   0.300) exceeded in Quadratic search.
    -- Step size scaled by   0.411
 Iteration  1 RMS(Cart)=  0.08248817 RMS(Int)=  0.05566407
 Iteration  2 RMS(Cart)=  0.04503114 RMS(Int)=  0.00002615
 Iteration  3 RMS(Cart)=  0.00003867 RMS(Int)=  0.00000000
 Iteration  4 RMS(Cart)=  0.00000000 RMS(Int)=  0.00000000
 ClnCor:  largest displacement from symmetrization is 3.02D-15 for atom     1.
 Variable       Old X    -DE/DX   Delta X   Delta X   Delta X     New X
                                 (Linear)    (Quad)   (Total)
    R1        5.71609  -0.03630   0.00000   0.29633   0.29633   6.01242
    R2        1.84961   0.00326   0.00000   0.00425   0.00425   1.85386
    A1        1.24289   0.00591   0.00000  -0.04656  -0.04656   1.19633
         Item               Value     Threshold  Converged?
 Maximum Force            0.036300     0.000450     NO 
 RMS     Force            0.021318     0.000300     NO 
 Maximum Displacement     0.150048     0.001800     NO 
 RMS     Displacement     0.124689     0.001200     NO 
 Predicted change in Energy= 9.963769D-03
 GradGradGradGradGradGradGradGradGradGradGradGradGradGradGradGradGradGrad

                          Input orientation:                          
 ---------------------------------------------------------------------
 Center     Atomic      Atomic             Coordinates (Angstroms)
 Number     Number       Type             X           Y           Z
 ---------------------------------------------------------------------
      1          8           0       -1.433055    2.584400   -0.921460
      2         17           0       -1.404520   -0.291348    0.439450
      3          1           0       -0.553597    2.157456   -1.003161
 ---------------------------------------------------------------------
                    Distance matrix (angstroms):
                    1          2          3
     1  O    0.000000
     2  Cl   3.181637   0.000000
     3  H    0.981021   2.966789   0.000000
 Stoichiometry    ClHO
 Framework group  CS[SG(ClHO)]
 Deg. of freedom     3
 Full point group                 CS      NOp   2
 Largest Abelian subgroup         CS      NOp   2
 Largest concise Abelian subgroup C1      NOp   1
                         Standard orientation:                         
 ---------------------------------------------------------------------
 Center     Atomic      Atomic             Coordinates (Angstroms)
 Number     Number       Type             X           Y           Z
 ---------------------------------------------------------------------
      1          8           0        0.035117    2.094103   -0.000000
      2         17           0        0.035117   -1.087535   -0.000000
      3          1           0       -0.877921    1.735266    0.000000
 ---------------------------------------------------------------------
 Rotational constants (GHZ):         631.7129615           4.4172648           4.3865914
 Standard basis: SVP (5D, 7F)
 There are    29 symmetry adapted cartesian basis functions of A'  symmetry.
 There are    10 symmetry adapted cartesian basis functions of A"  symmetry.
 There are    27 symmetry adapted basis functions of A'  symmetry.
 There are    10 symmetry adapted basis functions of A"  symmetry.
    37 basis functions,    69 primitive gaussians,    39 cartesian basis functions
    13 alpha electrons       13 beta electrons
       nuclear repulsion energy        29.9673885345 Hartrees.
 NAtoms=    3 NActive=    3 NUniq=    3 SFac= 1.00D+00 NAtFMM=   60 NAOKFM=F Big=F
 Integral buffers will be    131072 words long.
 Raffenetti 2 integral format.
 Two-electron integral symmetry is turned on.
 Nuclear repulsion after empirical dispersion term =       29.9661047356 Hartrees.
 One-electron integrals computed using PRISM.
 NBasis=    37 RedAO= T EigKep=  5.49D-02  NBF=    27    10
 NBsUse=    37 1.00D-06 EigRej= -1.00D+00 NBFU=    27    10
 Initial guess from the checkpoint file:  "/tmp/Gau-10738.chk"
 B after Tr=     0.000000    0.000000    0.000000
         Rot=    1.000000    0.000000    0.000000    0.000702 Ang=   0.08 deg.
 Initial guess orbital symmetries:
       Occupied  (A') (A') (A') (A') (A') (A") (A') (A') (A') (A')
                 (A") (A') (A")
       Virtual   (A') (A') (A') (A') (A') (A") (A') (A") (A') (A')
                 (A') (A") (A') (A") (A') (A') (A') (A") (A') (A")
                 (A') (A') (A") (A')
 ExpMin= 1.22D-01 ExpMax= 1.04D+04 ExpMxC= 1.57D+03 IAcc=2 IRadAn=         4 AccDes= 0.00D+00
 Harris functional with IExCor=  402 and IRadAn=       4 diagonalized for initial guess.
 HarFok:  IExCor=  402 AccDes= 0.00D+00 IRadAn=         4 IDoV= 1 UseB2=F ITyADJ=14
 ICtDFT=  3500011 ScaDFX=  1.000000  1.000000  1.000000  1.000000
 FoFCou: FMM=F IPFlag=           0 FMFlag=      100000 FMFlg1=           0
         NFxFlg=           0 DoJE=T BraDBF=F KetDBF=T FulRan=T
         wScrn=  0.000000 ICntrl=       500 IOpCl=  0 I1Cent=   200000004 NGrid=           0
         NMat0=    1 NMatS0=      1 NMatT0=    0 NMatD0=    1 NMtDS0=    0 NMtDT0=    0
 Petite list used in FoFCou.
 Keep R1 ints in memory in symmetry-blocked form, NReq=7153137.
 Requested convergence on RMS density matrix=1.00D-08 within 128 cycles.
 Requested convergence on MAX density matrix=1.00D-06.
 Requested convergence on             energy=1.00D-06.
 No special actions if energy rises.
 Integral accuracy reduced to 1.0D-05 until final iterations.
 Initial convergence to 1.0D-05 achieved.  Increase integral accuracy.
 SCF Done:  E(RB3LYP) =  -535.621097601     A.U. after   19 cycles
            NFock= 19  Conv=0.13D-08     -V/T= 2.0029
 Calling FoFJK, ICntrl=      2127 FMM=F ISym2X=1 I1Cent= 0 IOpClX= 0 NMat=1 NMatS=1 NMatT=0.
 ***** Axes restored to original set *****
 -------------------------------------------------------------------
 Center     Atomic                   Forces (Hartrees/Bohr)
 Number     Number              X              Y              Z
 -------------------------------------------------------------------
      1        8          -0.001064498   -0.029181637    0.014248812
      2       17          -0.001115993    0.027500646   -0.012740984
      3        1           0.002180491    0.001680991   -0.001507828
 -------------------------------------------------------------------
 Cartesian Forces:  Max     0.029181637 RMS     0.014852786

 GradGradGradGradGradGradGradGradGradGradGradGradGradGradGradGradGradGrad
 Berny optimization.
 FormGI is forming the generalized inverse of G from B-inverse, IUseBI=4.
 Internal  Forces:  Max     0.030315689 RMS     0.017780893
 Search for a saddle point.
 Step number   7 out of a maximum of  100
 All quantities printed in internal units (Hartrees-Bohrs-Radians)
 Swapping is turned off.
 Update second derivatives using D2CorX and points    5    6    7
 The second derivative matrix:
                          R1        R2        A1
           R1          -0.01716
           R2          -0.00243   0.61317
           A1           0.01909  -0.00074   0.10733
 ITU=  0  0  0  0
     Eigenvalues ---   -0.02003   0.11019   0.61318
 Eigenvectors required to have negative eigenvalues:
                          R1        A1        R2
   1                    0.98895  -0.14819   0.00363
 RFO step:  Lambda0=2.232900306D-02 Lambda=-8.01918048D-06.
 Linear search not attempted -- option 19 set.
 Maximum step size (   0.300) exceeded in Quadratic search.
    -- Step size scaled by   0.413
 Iteration  1 RMS(Cart)=  0.08310842 RMS(Int)=  0.05607120
 Iteration  2 RMS(Cart)=  0.04545178 RMS(Int)=  0.00002244
 Iteration  3 RMS(Cart)=  0.00003347 RMS(Int)=  0.00000000
 Iteration  4 RMS(Cart)=  0.00000000 RMS(Int)=  0.00000000
 ClnCor:  largest displacement from symmetrization is 3.32D-15 for atom     1.
 Variable       Old X    -DE/DX   Delta X   Delta X   Delta X     New X
                                 (Linear)    (Quad)   (Total)
    R1        6.01242  -0.03032   0.00000   0.29706   0.29706   6.30949
    R2        1.85386   0.00135   0.00000   0.00207   0.00207   1.85594
    A1        1.19633   0.00526   0.00000  -0.04183  -0.04183   1.15450
         Item               Value     Threshold  Converged?
 Maximum Force            0.030316     0.000450     NO 
 RMS     Force            0.017781     0.000300     NO 
 Maximum Displacement     0.153159     0.001800     NO 
 RMS     Displacement     0.126245     0.001200     NO 
 Predicted change in Energy= 8.322082D-03
 GradGradGradGradGradGradGradGradGradGradGradGradGradGradGradGradGradGrad

                          Input orientation:                          
 ---------------------------------------------------------------------
 Center     Atomic      Atomic             Coordinates (Angstroms)
 Number     Number       Type             X           Y           Z
 ---------------------------------------------------------------------
      1          8           0       -1.422626    2.643420   -0.952962
      2         17           0       -1.409545   -0.372396    0.479695
      3          1           0       -0.559002    2.179483   -1.011904
 ---------------------------------------------------------------------
                    Distance matrix (angstroms):
                    1          2          3
     1  O    0.000000
     2  Cl   3.338836   0.000000
     3  H    0.982119   3.075773   0.000000
 Stoichiometry    ClHO
 Framework group  CS[SG(ClHO)]
 Deg. of freedom     3
 Full point group                 CS      NOp   2
 Largest Abelian subgroup         CS      NOp   2
 Largest concise Abelian subgroup C1      NOp   1
                         Standard orientation:                         
 ---------------------------------------------------------------------
 Center     Atomic      Atomic             Coordinates (Angstroms)
 Number     Number       Type             X           Y           Z
 ---------------------------------------------------------------------
      1          8           0        0.034548    2.198360   -0.000000
      2         17           0        0.034548   -1.140476    0.000000
      3          1           0       -0.863691    1.801215   -0.000000
 ---------------------------------------------------------------------
 Rotational constants (GHZ):         652.2794964           4.0136944           3.9891478
 Standard basis: SVP (5D, 7F)
 There are    29 symmetry adapted cartesian basis functions of A'  symmetry.
 There are    10 symmetry adapted cartesian basis functions of A"  symmetry.
 There are    27 symmetry adapted basis functions of A'  symmetry.
 There are    10 symmetry adapted basis functions of A"  symmetry.
    37 basis functions,    69 primitive gaussians,    39 cartesian basis functions
    13 alpha electrons       13 beta electrons
       nuclear repulsion energy        28.7901379116 Hartrees.
 NAtoms=    3 NActive=    3 NUniq=    3 SFac= 1.00D+00 NAtFMM=   60 NAOKFM=F Big=F
 Integral buffers will be    131072 words long.
 Raffenetti 2 integral format.
 Two-electron integral symmetry is turned on.
 Nuclear repulsion after empirical dispersion term =       28.7889660041 Hartrees.
 One-electron integrals computed using PRISM.
 NBasis=    37 RedAO= T EigKep=  5.49D-02  NBF=    27    10
 NBsUse=    37 1.00D-06 EigRej= -1.00D+00 NBFU=    27    10
 Initial guess from the checkpoint file:  "/tmp/Gau-10738.chk"
 B after Tr=    -0.000000   -0.000000    0.000000
         Rot=    1.000000    0.000000   -0.000000    0.000695 Ang=   0.08 deg.
 Initial guess orbital symmetries:
       Occupied  (A') (A') (A') (A') (A') (A") (A') (A') (A') (A")
                 (A') (A') (A")
       Virtual   (A') (A') (A') (A') (A') (A") (A') (A') (A") (A')
                 (A') (A") (A') (A") (A') (A') (A') (A") (A') (A")
                 (A') (A') (A") (A')
 ExpMin= 1.22D-01 ExpMax= 1.04D+04 ExpMxC= 1.57D+03 IAcc=2 IRadAn=         4 AccDes= 0.00D+00
 Harris functional with IExCor=  402 and IRadAn=       4 diagonalized for initial guess.
 HarFok:  IExCor=  402 AccDes= 0.00D+00 IRadAn=         4 IDoV= 1 UseB2=F ITyADJ=14
 ICtDFT=  3500011 ScaDFX=  1.000000  1.000000  1.000000  1.000000
 FoFCou: FMM=F IPFlag=           0 FMFlag=      100000 FMFlg1=           0
         NFxFlg=           0 DoJE=T BraDBF=F KetDBF=T FulRan=T
         wScrn=  0.000000 ICntrl=       500 IOpCl=  0 I1Cent=   200000004 NGrid=           0
         NMat0=    1 NMatS0=      1 NMatT0=    0 NMatD0=    1 NMtDS0=    0 NMtDT0=    0
 Petite list used in FoFCou.
 Keep R1 ints in memory in symmetry-blocked form, NReq=7153137.
 Requested convergence on RMS density matrix=1.00D-08 within 128 cycles.
 Requested convergence on MAX density matrix=1.00D-06.
 Requested convergence on             energy=1.00D-06.
 No special actions if energy rises.
 Integral accuracy reduced to 1.0D-05 until final iterations.
 Initial convergence to 1.0D-05 achieved.  Increase integral accuracy.
 SCF Done:  E(RB3LYP) =  -535.612683263     A.U. after   20 cycles
            NFock= 20  Conv=0.13D-08     -V/T= 2.0028
 Calling FoFJK, ICntrl=      2127 FMM=F ISym2X=1 I1Cent= 0 IOpClX= 0 NMat=1 NMatS=1 NMatT=0.
 ***** Axes restored to original set *****
 -------------------------------------------------------------------
 Center     Atomic                   Forces (Hartrees/Bohr)
 Number     Number              X              Y              Z
 -------------------------------------------------------------------
      1        8          -0.000516885   -0.024426280    0.011805568
      2       17          -0.000777202    0.022756340   -0.010590377
      3        1           0.001294087    0.001669940   -0.001215192
 -------------------------------------------------------------------
 Cartesian Forces:  Max     0.024426280 RMS     0.012350587

 GradGradGradGradGradGradGradGradGradGradGradGradGradGradGradGradGradGrad
 Berny optimization.
 FormGI is forming the generalized inverse of G from B-inverse, IUseBI=4.
 Internal  Forces:  Max     0.025101832 RMS     0.014721057
 Search for a saddle point.
 Step number   8 out of a maximum of  100
 All quantities printed in internal units (Hartrees-Bohrs-Radians)
 Swapping is turned off.
 Update second derivatives using D2CorX and points    6    7    8
 The second derivative matrix:
                          R1        R2        A1
           R1          -0.01502
           R2          -0.00134   0.61357
           A1           0.01790  -0.00122   0.10789
 ITU=  0  0  0  0
     Eigenvalues ---   -0.01758   0.11044   0.61358
 Eigenvectors required to have negative eigenvalues:
                          R1        A1        R2
   1                    0.98998  -0.14119   0.00184
 RFO step:  Lambda0=1.816325623D-02 Lambda=-7.17355001D-06.
 Linear search not attempted -- option 19 set.
 Maximum step size (   0.300) exceeded in Quadratic search.
    -- Step size scaled by   0.421
 Iteration  1 RMS(Cart)=  0.08366239 RMS(Int)=  0.05628350
 Iteration  2 RMS(Cart)=  0.04569275 RMS(Int)=  0.00001937
 Iteration  3 RMS(Cart)=  0.00002904 RMS(Int)=  0.00000000
 Iteration  4 RMS(Cart)=  0.00000000 RMS(Int)=  0.00000000
 ClnCor:  largest displacement from symmetrization is 2.09D-15 for atom     1.
 Variable       Old X    -DE/DX   Delta X   Delta X   Delta X     New X
                                 (Linear)    (Quad)   (Total)
    R1        6.30949  -0.02510   0.00000   0.29744   0.29744   6.60693
    R2        1.85594   0.00042   0.00000   0.00088   0.00088   1.85682
    A1        1.15450   0.00446   0.00000  -0.03908  -0.03908   1.11542
         Item               Value     Threshold  Converged?
 Maximum Force            0.025102     0.000450     NO 
 RMS     Force            0.014721     0.000300     NO 
 Maximum Displacement     0.155140     0.001800     NO 
 RMS     Displacement     0.127318     0.001200     NO 
 Predicted change in Energy= 6.849859D-03
 GradGradGradGradGradGradGradGradGradGradGradGradGradGradGradGradGradGrad

                          Input orientation:                          
 ---------------------------------------------------------------------
 Center     Atomic      Atomic             Coordinates (Angstroms)
 Number     Number       Type             X           Y           Z
 ---------------------------------------------------------------------
      1          8           0       -1.411237    2.701304   -0.984233
      2         17           0       -1.415141   -0.454493    0.520624
      3          1           0       -0.564794    2.203697   -1.021562
 ---------------------------------------------------------------------
                    Distance matrix (angstroms):
                    1          2          3
     1  O    0.000000
     2  Cl   3.496236   0.000000
     3  H    0.982584   3.188636   0.000000
 Stoichiometry    ClHO
 Framework group  CS[SG(ClHO)]
 Deg. of freedom     3
 Full point group                 CS      NOp   2
 Largest Abelian subgroup         CS      NOp   2
 Largest concise Abelian subgroup C1      NOp   1
                         Standard orientation:                         
 ---------------------------------------------------------------------
 Center     Atomic      Atomic             Coordinates (Angstroms)
 Number     Number       Type             X           Y           Z
 ---------------------------------------------------------------------
      1          8           0        0.033941    2.302621    0.000000
      2         17           0        0.033941   -1.193615   -0.000000
      3          1           0       -0.848514    1.870480    0.000000
 ---------------------------------------------------------------------
 Rotational constants (GHZ):         675.4956944           3.6622115           3.6424638
 Standard basis: SVP (5D, 7F)
 There are    29 symmetry adapted cartesian basis functions of A'  symmetry.
 There are    10 symmetry adapted cartesian basis functions of A"  symmetry.
 There are    27 symmetry adapted basis functions of A'  symmetry.
 There are    10 symmetry adapted basis functions of A"  symmetry.
    37 basis functions,    69 primitive gaussians,    39 cartesian basis functions
    13 alpha electrons       13 beta electrons
       nuclear repulsion energy        27.7141775159 Hartrees.
 NAtoms=    3 NActive=    3 NUniq=    3 SFac= 1.00D+00 NAtFMM=   60 NAOKFM=F Big=F
 Integral buffers will be    131072 words long.
 Raffenetti 2 integral format.
 Two-electron integral symmetry is turned on.
 Nuclear repulsion after empirical dispersion term =       27.7131203569 Hartrees.
 One-electron integrals computed using PRISM.
 NBasis=    37 RedAO= T EigKep=  5.49D-02  NBF=    27    10
 NBsUse=    37 1.00D-06 EigRej= -1.00D+00 NBFU=    27    10
 Initial guess from the checkpoint file:  "/tmp/Gau-10738.chk"
 B after Tr=     0.000000    0.000000   -0.000000
         Rot=    1.000000   -0.000000   -0.000000    0.000669 Ang=   0.08 deg.
 Initial guess orbital symmetries:
       Occupied  (A') (A') (A') (A') (A') (A") (A') (A') (A') (A")
                 (A') (A') (A")
       Virtual   (A') (A') (A') (A') (A') (A") (A') (A') (A") (A')
                 (A') (A") (A') (A") (A') (A') (A') (A") (A') (A")
                 (A') (A') (A") (A')
 ExpMin= 1.22D-01 ExpMax= 1.04D+04 ExpMxC= 1.57D+03 IAcc=2 IRadAn=         4 AccDes= 0.00D+00
 Harris functional with IExCor=  402 and IRadAn=       4 diagonalized for initial guess.
 HarFok:  IExCor=  402 AccDes= 0.00D+00 IRadAn=         4 IDoV= 1 UseB2=F ITyADJ=14
 ICtDFT=  3500011 ScaDFX=  1.000000  1.000000  1.000000  1.000000
 FoFCou: FMM=F IPFlag=           0 FMFlag=      100000 FMFlg1=           0
         NFxFlg=           0 DoJE=T BraDBF=F KetDBF=T FulRan=T
         wScrn=  0.000000 ICntrl=       500 IOpCl=  0 I1Cent=   200000004 NGrid=           0
         NMat0=    1 NMatS0=      1 NMatT0=    0 NMatD0=    1 NMtDS0=    0 NMtDT0=    0
 Petite list used in FoFCou.
 Keep R1 ints in memory in symmetry-blocked form, NReq=7153137.
 Requested convergence on RMS density matrix=1.00D-08 within 128 cycles.
 Requested convergence on MAX density matrix=1.00D-06.
 Requested convergence on             energy=1.00D-06.
 No special actions if energy rises.
 Integral accuracy reduced to 1.0D-05 until final iterations.
 Initial convergence to 1.0D-05 achieved.  Increase integral accuracy.
 SCF Done:  E(RB3LYP) =  -535.605746396     A.U. after   20 cycles
            NFock= 20  Conv=0.93D-08     -V/T= 2.0028
 Calling FoFJK, ICntrl=      2127 FMM=F ISym2X=1 I1Cent= 0 IOpClX= 0 NMat=1 NMatS=1 NMatT=0.
 ***** Axes restored to original set *****
 -------------------------------------------------------------------
 Center     Atomic                   Forces (Hartrees/Bohr)
 Number     Number              X              Y              Z
 -------------------------------------------------------------------
      1        8          -0.000335851   -0.020115299    0.009692893
      2       17          -0.000499756    0.018653336   -0.008725432
      3        1           0.000835607    0.001461963   -0.000967461
 -------------------------------------------------------------------
 Cartesian Forces:  Max     0.020115299 RMS     0.010147751

 GradGradGradGradGradGradGradGradGradGradGradGradGradGradGradGradGradGrad
 Berny optimization.
 FormGI is forming the generalized inverse of G from B-inverse, IUseBI=4.
 Internal  Forces:  Max     0.020592211 RMS     0.012069811
 Search for a saddle point.
 Step number   9 out of a maximum of  100
 All quantities printed in internal units (Hartrees-Bohrs-Radians)
 Swapping is turned off.
 Update second derivatives using D2CorX and points    7    8    9
 The second derivative matrix:
                          R1        R2        A1
           R1          -0.01292
           R2          -0.00065   0.61377
           A1           0.01708  -0.00147   0.10819
 ITU=  0  0  0  0
     Eigenvalues ---   -0.01528   0.11055   0.61378
 Eigenvectors required to have negative eigenvalues:
                          R1        A1        R2
   1                   -0.99057   0.13698  -0.00070
 RFO step:  Lambda0=1.460588915D-02 Lambda=-5.10415666D-06.
 Linear search not attempted -- option 19 set.
 Maximum step size (   0.300) exceeded in Quadratic search.
    -- Step size scaled by   0.429
 Iteration  1 RMS(Cart)=  0.08406017 RMS(Int)=  0.05634689
 Iteration  2 RMS(Cart)=  0.04580542 RMS(Int)=  0.00001683
 Iteration  3 RMS(Cart)=  0.00002533 RMS(Int)=  0.00000000
 Iteration  4 RMS(Cart)=  0.00000000 RMS(Int)=  0.00000000
 ClnCor:  largest displacement from symmetrization is 1.40D-15 for atom     3.
 Variable       Old X    -DE/DX   Delta X   Delta X   Delta X     New X
                                 (Linear)    (Quad)   (Total)
    R1        6.60693  -0.02059   0.00000   0.29756   0.29756   6.90449
    R2        1.85682   0.00002   0.00000   0.00024   0.00024   1.85705
    A1        1.11542   0.00361   0.00000  -0.03821  -0.03821   1.07721
         Item               Value     Threshold  Converged?
 Maximum Force            0.020592     0.000450     NO 
 RMS     Force            0.012070     0.000300     NO 
 Maximum Displacement     0.156103     0.001800     NO 
 RMS     Displacement     0.127905     0.001200     NO 
 Predicted change in Energy= 5.578156D-03
 GradGradGradGradGradGradGradGradGradGradGradGradGradGradGradGradGradGrad

                          Input orientation:                          
 ---------------------------------------------------------------------
 Center     Atomic      Atomic             Coordinates (Angstroms)
 Number     Number       Type             X           Y           Z
 ---------------------------------------------------------------------
      1          8           0       -1.398985    2.758511   -1.015461
      2         17           0       -1.420959   -0.537099    0.561868
      3          1           0       -0.571228    2.229096   -1.031578
 ---------------------------------------------------------------------
                    Distance matrix (angstroms):
                    1          2          3
     1  O    0.000000
     2  Cl   3.653696   0.000000
     3  H    0.982711   3.303476   0.000000
 Stoichiometry    ClHO
 Framework group  CS[SG(ClHO)]
 Deg. of freedom     3
 Full point group                 CS      NOp   2
 Largest Abelian subgroup         CS      NOp   2
 Largest concise Abelian subgroup C1      NOp   1
                         Standard orientation:                         
 ---------------------------------------------------------------------
 Center     Atomic      Atomic             Coordinates (Angstroms)
 Number     Number       Type             X           Y           Z
 ---------------------------------------------------------------------
      1          8           0        0.033285    2.406863    0.000000
      2         17           0        0.033285   -1.246834   -0.000000
      3          1           0       -0.832130    1.941270    0.000000
 ---------------------------------------------------------------------
 Rotational constants (GHZ):         702.0783599           3.3546877           3.3387344
 Standard basis: SVP (5D, 7F)
 There are    29 symmetry adapted cartesian basis functions of A'  symmetry.
 There are    10 symmetry adapted cartesian basis functions of A"  symmetry.
 There are    27 symmetry adapted basis functions of A'  symmetry.
 There are    10 symmetry adapted basis functions of A"  symmetry.
    37 basis functions,    69 primitive gaussians,    39 cartesian basis functions
    13 alpha electrons       13 beta electrons
       nuclear repulsion energy        26.7284346849 Hartrees.
 NAtoms=    3 NActive=    3 NUniq=    3 SFac= 1.00D+00 NAtFMM=   60 NAOKFM=F Big=F
 Integral buffers will be    131072 words long.
 Raffenetti 2 integral format.
[...]
 Variable       Old X    -DE/DX   Delta X   Delta X   Delta X     New X
                                 (Linear)    (Quad)   (Total)
    R1       11.59555  -0.00091   0.00000   0.29048   0.29048  11.88603
    R2        1.85530   0.00000   0.00000  -0.00013  -0.00013   1.85517
    A1        0.08338  -0.00004   0.00000  -0.07499  -0.07499   0.00839
         Item               Value     Threshold  Converged?
 Maximum Force            0.000913     0.000450     NO 
 RMS     Force            0.000528     0.000300     NO 
 Maximum Displacement     0.172502     0.001800     NO 
 RMS     Displacement     0.148464     0.001200     NO 
 Predicted change in Energy= 2.499324D-04
 GradGradGradGradGradGradGradGradGradGradGradGradGradGradGradGradGradGrad

                          Input orientation:                          
 ---------------------------------------------------------------------
 Center     Atomic      Atomic             Coordinates (Angstroms)
 Number     Number       Type             X           Y           Z
 ---------------------------------------------------------------------
      1          8           0       -0.920974    3.636413   -1.588712
      2         17           0       -1.471221   -1.948922    1.250832
      3          1           0       -0.998977    2.763017   -1.147291
 ---------------------------------------------------------------------
                    Distance matrix (angstroms):
                    1          2          3
     1  O    0.000000
     2  Cl   6.289814   0.000000
     3  H    0.981712   5.308142   0.000000
 Stoichiometry    ClHO
 Framework group  CS[SG(ClHO)]
 Deg. of freedom     3
 Full point group                 CS      NOp   2
 Largest Abelian subgroup         CS      NOp   2
 Largest concise Abelian subgroup C1      NOp   1
                         Standard orientation:                         
 ---------------------------------------------------------------------
 Center     Atomic      Atomic             Coordinates (Angstroms)
 Number     Number       Type             X           Y           Z
 ---------------------------------------------------------------------
      1          8           0        0.000317    4.150327    0.000000
      2         17           0        0.000317   -2.139486   -0.000000
      3          1           0       -0.007924    3.168650    0.000000
 ---------------------------------------------------------------------
 Rotational constants (GHZ):     7720741.8508844           1.1352408           1.1352406
 Standard basis: SVP (5D, 7F)
 There are    29 symmetry adapted cartesian basis functions of A'  symmetry.
 There are    10 symmetry adapted cartesian basis functions of A"  symmetry.
 There are    27 symmetry adapted basis functions of A'  symmetry.
 There are    10 symmetry adapted basis functions of A"  symmetry.
    37 basis functions,    69 primitive gaussians,    39 cartesian basis functions
    13 alpha electrons       13 beta electrons
       nuclear repulsion energy        17.4490454208 Hartrees.
 NAtoms=    3 NActive=    3 NUniq=    3 SFac= 1.00D+00 NAtFMM=   60 NAOKFM=F Big=F
 Integral buffers will be    131072 words long.
 Raffenetti 2 integral format.
 Two-electron integral symmetry is turned on.
 Nuclear repulsion after empirical dispersion term =       17.4487603436 Hartrees.
 One-electron integrals computed using PRISM.
 NBasis=    37 RedAO= T EigKep=  5.60D-02  NBF=    27    10
 NBsUse=    37 1.00D-06 EigRej= -1.00D+00 NBFU=    27    10
 Initial guess from the checkpoint file:  "/tmp/Gau-10738.chk"
 B after Tr=     0.000000    0.000000   -0.000000
         Rot=    1.000000    0.000000   -0.000000    0.000531 Ang=   0.06 deg.
 Initial guess orbital symmetries:
       Occupied  (A') (A') (A') (A') (A') (A") (A') (A') (A') (A")
                 (A') (A") (A')
       Virtual   (A') (A') (A') (A') (A') (A') (A") (A') (A") (A')
                 (A') (A") (A') (A') (A") (A') (A') (A") (A') (A")
                 (A') (A') (A") (A')
 ExpMin= 1.22D-01 ExpMax= 1.04D+04 ExpMxC= 1.57D+03 IAcc=2 IRadAn=         4 AccDes= 0.00D+00
 Harris functional with IExCor=  402 and IRadAn=       4 diagonalized for initial guess.
 HarFok:  IExCor=  402 AccDes= 0.00D+00 IRadAn=         4 IDoV= 1 UseB2=F ITyADJ=14
 ICtDFT=  3500011 ScaDFX=  1.000000  1.000000  1.000000  1.000000
 FoFCou: FMM=F IPFlag=           0 FMFlag=      100000 FMFlg1=           0
         NFxFlg=           0 DoJE=T BraDBF=F KetDBF=T FulRan=T
         wScrn=  0.000000 ICntrl=       500 IOpCl=  0 I1Cent=   200000004 NGrid=           0
         NMat0=    1 NMatS0=      1 NMatT0=    0 NMatD0=    1 NMtDS0=    0 NMtDT0=    0
 Petite list used in FoFCou.
 Keep R1 ints in memory in symmetry-blocked form, NReq=7153137.
 Requested convergence on RMS density matrix=1.00D-08 within 128 cycles.
 Requested convergence on MAX density matrix=1.00D-06.
 Requested convergence on             energy=1.00D-06.
 No special actions if energy rises.
 Integral accuracy reduced to 1.0D-05 until final iterations.
 Initial convergence to 1.0D-05 achieved.  Increase integral accuracy.
 SCF Done:  E(RB3LYP) =  -535.579011633     A.U. after   29 cycles
            NFock= 29  Conv=0.66D-09     -V/T= 2.0025
 Calling FoFJK, ICntrl=      2127 FMM=F ISym2X=1 I1Cent= 0 IOpClX= 0 NMat=1 NMatS=1 NMatT=0.
 ***** Axes restored to original set *****
 -------------------------------------------------------------------
 Center     Atomic                   Forces (Hartrees/Bohr)
 Number     Number              X              Y              Z
 -------------------------------------------------------------------
      1        8          -0.000071079   -0.000735137    0.000373303
      2       17           0.000075640    0.000764050   -0.000388557
      3        1          -0.000004561   -0.000028913    0.000015254
 -------------------------------------------------------------------
 Cartesian Forces:  Max     0.000764050 RMS     0.000398106

 GradGradGradGradGradGradGradGradGradGradGradGradGradGradGradGradGradGrad
 Berny optimization.
 FormGI is forming the generalized inverse of G from B-inverse, IUseBI=4.
 Internal  Forces:  Max     0.000860506 RMS     0.000497182
 Search for a saddle point.
 Step number  27 out of a maximum of  100
 All quantities printed in internal units (Hartrees-Bohrs-Radians)
 Swapping is turned off.
 Update second derivatives using D2CorX and points   25   26   27
 The second derivative matrix:
                          R1        R2        A1
           R1           0.00704
           R2          -0.00024   0.61392
           A1           0.02797  -0.00164   0.10885
 ITU=  0  0  0  0
     Eigenvalues ---   -0.00014   0.11603   0.61393
 Eigenvectors required to have negative eigenvalues:
                          R1        A1        R2
   1                   -0.96861   0.24859   0.00028
 RFO step:  Lambda0=7.660860300D-04 Lambda=-4.09211163D-07.
 Linear search not attempted -- option 19 set.
 Maximum step size (   0.300) exceeded in Quadratic search.
    -- Step size scaled by   0.326
 Iteration  1 RMS(Cart)=  0.09190105 RMS(Int)=  0.10063666
 Iteration  2 RMS(Cart)=  0.09967093 RMS(Int)=  0.06953219
 New curvilinear step failed, DQL= 2.15D-02 SP=-6.05D-01.
 ITry= 1 IFail=1 DXMaxC= 1.59D-01 DCOld= 1.00D+10 DXMaxT= 3.00D-01 DXLimC= 3.00D+00 Rises=F
 Iteration  1 RMS(Cart)=  0.09344332 RMS(Int)=  0.08148550
 Iteration  2 RMS(Cart)=  0.08278443 RMS(Int)=  0.05963832
 New curvilinear step failed, DQL= 2.15D-02 SP=-6.89D-01.
 ITry= 2 IFail=1 DXMaxC= 1.43D-01 DCOld= 1.00D+10 DXMaxT= 3.00D-01 DXLimC= 3.00D+00 Rises=F
 Iteration  1 RMS(Cart)=  0.09459095 RMS(Int)=  0.06406467
 Iteration  2 RMS(Cart)=  0.06241883 RMS(Int)=  0.04684243
 New curvilinear step failed, DQL= 2.71D-02 SP=-7.85D-01.
 ITry= 3 IFail=1 DXMaxC= 1.28D-01 DCOld= 1.00D+10 DXMaxT= 3.00D-01 DXLimC= 3.00D+00 Rises=F
 Iteration  1 RMS(Cart)=  0.09537282 RMS(Int)=  0.04992178
 Iteration  2 RMS(Cart)=  0.00117855 RMS(Int)=  0.04906996
 New curvilinear step failed, DQL= 1.99D-02 SP=-7.04D-02.
 ITry= 4 IFail=1 DXMaxC= 1.11D-01 DCOld= 1.00D+10 DXMaxT= 3.00D-01 DXLimC= 3.00D+00 Rises=F
 Iteration  1 RMS(Cart)=  0.08378035 RMS(Int)=  0.04120941
 New curvilinear step failed, DQL= 1.26D-02 SP=-8.63D-02.
 ITry= 5 IFail=1 DXMaxC= 9.75D-02 DCOld= 1.00D+10 DXMaxT= 3.00D-01 DXLimC= 3.00D+00 Rises=F
 Iteration  1 RMS(Cart)=  0.07059017 RMS(Int)=  0.03283225
 New curvilinear step failed, DQL= 8.77D-03 SP=-1.06D-01.
 ITry= 6 IFail=1 DXMaxC= 8.21D-02 DCOld= 1.00D+10 DXMaxT= 3.00D-01 DXLimC= 3.00D+00 Rises=F
 Iteration  1 RMS(Cart)=  0.05733288 RMS(Int)=  0.02446457
 New curvilinear step failed, DQL= 5.19D-03 SP=-1.34D-01.
 ITry= 7 IFail=1 DXMaxC= 6.67D-02 DCOld= 1.00D+10 DXMaxT= 3.00D-01 DXLimC= 3.00D+00 Rises=F
 Iteration  1 RMS(Cart)=  0.04393214 RMS(Int)=  0.01610751
 New curvilinear step failed, DQL= 1.97D-03 SP=-1.82D-01.
 ITry= 8 IFail=1 DXMaxC= 5.11D-02 DCOld= 1.00D+10 DXMaxT= 3.00D-01 DXLimC= 3.00D+00 Rises=F
 Iteration  1 RMS(Cart)=  0.02993418 RMS(Int)=  0.00766969
 Iteration  2 RMS(Cart)=  0.01079420 RMS(Int)=  0.00766781
 Iteration  3 RMS(Cart)=  0.01079171 RMS(Int)=  0.00766758
 Iteration  4 RMS(Cart)=  0.01079139 RMS(Int)=  0.00766758
 Iteration  5 RMS(Cart)=  0.01079139 RMS(Int)=  0.00766758
 Iteration  6 RMS(Cart)=  0.01079139 RMS(Int)=  0.00766758
 Iteration  7 RMS(Cart)=  0.01079139 RMS(Int)=  0.00766758
 Iteration  8 RMS(Cart)=  0.01079139 RMS(Int)=  0.00766758
 Iteration  9 RMS(Cart)=  0.01079139 RMS(Int)=  0.00766758
 Iteration 10 RMS(Cart)=  0.01079139 RMS(Int)=  0.00766758
 Iteration 11 RMS(Cart)=  0.01079139 RMS(Int)=  0.00766758
 Iteration 12 RMS(Cart)=  0.01079139 RMS(Int)=  0.00766758
 Iteration 13 RMS(Cart)=  0.01079139 RMS(Int)=  0.00766758
 Iteration 14 RMS(Cart)=  0.01079139 RMS(Int)=  0.00766758
 Iteration 15 RMS(Cart)=  0.01079139 RMS(Int)=  0.00766758
 Iteration 16 RMS(Cart)=  0.01079139 RMS(Int)=  0.00766758
 Iteration 17 RMS(Cart)=  0.01079139 RMS(Int)=  0.00766758
 Iteration 18 RMS(Cart)=  0.01079139 RMS(Int)=  0.00766758
 Iteration 19 RMS(Cart)=  0.01079139 RMS(Int)=  0.00766758
 Iteration 20 RMS(Cart)=  0.01079139 RMS(Int)=  0.00766758
 Iteration 21 RMS(Cart)=  0.01079139 RMS(Int)=  0.00766758
 Iteration 22 RMS(Cart)=  0.01079139 RMS(Int)=  0.00766758
 Iteration 23 RMS(Cart)=  0.01079139 RMS(Int)=  0.00766758
 Iteration 24 RMS(Cart)=  0.01079139 RMS(Int)=  0.00766758
 Iteration 25 RMS(Cart)=  0.01079139 RMS(Int)=  0.00766758
 Iteration 26 RMS(Cart)=  0.01079139 RMS(Int)=  0.00766758
 Iteration 27 RMS(Cart)=  0.01079139 RMS(Int)=  0.00766758
 Iteration 28 RMS(Cart)=  0.01079139 RMS(Int)=  0.00766758
 Iteration 29 RMS(Cart)=  0.01079139 RMS(Int)=  0.00766758
 Iteration 30 RMS(Cart)=  0.01079139 RMS(Int)=  0.00766758
 Iteration 31 RMS(Cart)=  0.01079139 RMS(Int)=  0.00766758
 Iteration 32 RMS(Cart)=  0.01079139 RMS(Int)=  0.00766758
 Iteration 33 RMS(Cart)=  0.01079139 RMS(Int)=  0.00766758
 Iteration 34 RMS(Cart)=  0.01079139 RMS(Int)=  0.00766758
 Iteration 35 RMS(Cart)=  0.01079139 RMS(Int)=  0.00766758
 Iteration 36 RMS(Cart)=  0.01079139 RMS(Int)=  0.00766758
 Iteration 37 RMS(Cart)=  0.01079139 RMS(Int)=  0.00766758
 Iteration 38 RMS(Cart)=  0.01079139 RMS(Int)=  0.00766758
 Iteration 39 RMS(Cart)=  0.01079139 RMS(Int)=  0.00766758
 Iteration 40 RMS(Cart)=  0.01079139 RMS(Int)=  0.00766758
 Iteration 41 RMS(Cart)=  0.01079139 RMS(Int)=  0.00766758
 Iteration 42 RMS(Cart)=  0.01079139 RMS(Int)=  0.00766758
 Iteration 43 RMS(Cart)=  0.01079139 RMS(Int)=  0.00766758
 Iteration 44 RMS(Cart)=  0.01079139 RMS(Int)=  0.00766758
 Iteration 45 RMS(Cart)=  0.01079139 RMS(Int)=  0.00766758
 Iteration 46 RMS(Cart)=  0.01079139 RMS(Int)=  0.00766758
 Iteration 47 RMS(Cart)=  0.01079139 RMS(Int)=  0.00766758
 Iteration 48 RMS(Cart)=  0.01079139 RMS(Int)=  0.00766758
 Iteration 49 RMS(Cart)=  0.01079139 RMS(Int)=  0.00766758
 Iteration 50 RMS(Cart)=  0.01079139 RMS(Int)=  0.00766758
 Iteration 51 RMS(Cart)=  0.01079139 RMS(Int)=  0.00766758
 Iteration 52 RMS(Cart)=  0.01079139 RMS(Int)=  0.00766758
 Iteration 53 RMS(Cart)=  0.01079139 RMS(Int)=  0.00766758
 Iteration 54 RMS(Cart)=  0.01079139 RMS(Int)=  0.00766758
 Iteration 55 RMS(Cart)=  0.01079139 RMS(Int)=  0.00766758
 Iteration 56 RMS(Cart)=  0.01079139 RMS(Int)=  0.00766758
 Iteration 57 RMS(Cart)=  0.01079139 RMS(Int)=  0.00766758
 Iteration 58 RMS(Cart)=  0.01079139 RMS(Int)=  0.00766758
 Iteration 59 RMS(Cart)=  0.01079139 RMS(Int)=  0.00766758
 Iteration 60 RMS(Cart)=  0.01079139 RMS(Int)=  0.00766758
 Iteration 61 RMS(Cart)=  0.01079139 RMS(Int)=  0.00766758
 Iteration 62 RMS(Cart)=  0.01079139 RMS(Int)=  0.00766758
 Iteration 63 RMS(Cart)=  0.01079139 RMS(Int)=  0.00766758
 Iteration 64 RMS(Cart)=  0.01079139 RMS(Int)=  0.00766758
 Iteration 65 RMS(Cart)=  0.01079139 RMS(Int)=  0.00766758
 Iteration 66 RMS(Cart)=  0.01079139 RMS(Int)=  0.00766758
 Iteration 67 RMS(Cart)=  0.01079139 RMS(Int)=  0.00766758
 Iteration 68 RMS(Cart)=  0.01079139 RMS(Int)=  0.00766758
 Iteration 69 RMS(Cart)=  0.01079139 RMS(Int)=  0.00766758
 Iteration 70 RMS(Cart)=  0.01079139 RMS(Int)=  0.00766758
 Iteration 71 RMS(Cart)=  0.01079139 RMS(Int)=  0.00766758
 Iteration 72 RMS(Cart)=  0.01079139 RMS(Int)=  0.00766758
 Iteration 73 RMS(Cart)=  0.01079139 RMS(Int)=  0.00766758
 Iteration 74 RMS(Cart)=  0.01079139 RMS(Int)=  0.00766758
 Iteration 75 RMS(Cart)=  0.01079139 RMS(Int)=  0.00766758
 Iteration 76 RMS(Cart)=  0.01079139 RMS(Int)=  0.00766758
 Iteration 77 RMS(Cart)=  0.01079139 RMS(Int)=  0.00766758
 Iteration 78 RMS(Cart)=  0.01079139 RMS(Int)=  0.00766758
 Iteration 79 RMS(Cart)=  0.01079139 RMS(Int)=  0.00766758
 Iteration 80 RMS(Cart)=  0.01079139 RMS(Int)=  0.00766758
 Iteration 81 RMS(Cart)=  0.01079139 RMS(Int)=  0.00766758
 Iteration 82 RMS(Cart)=  0.01079139 RMS(Int)=  0.00766758
 Iteration 83 RMS(Cart)=  0.01079139 RMS(Int)=  0.00766758
 Iteration 84 RMS(Cart)=  0.01079139 RMS(Int)=  0.00766758
 Iteration 85 RMS(Cart)=  0.01079139 RMS(Int)=  0.00766758
 Iteration 86 RMS(Cart)=  0.01079139 RMS(Int)=  0.00766758
 Iteration 87 RMS(Cart)=  0.01079139 RMS(Int)=  0.00766758
 Iteration 88 RMS(Cart)=  0.01079139 RMS(Int)=  0.00766758
 Iteration 89 RMS(Cart)=  0.01079139 RMS(Int)=  0.00766758
 Iteration 90 RMS(Cart)=  0.01079139 RMS(Int)=  0.00766758
 Iteration 91 RMS(Cart)=  0.01079139 RMS(Int)=  0.00766758
 Iteration 92 RMS(Cart)=  0.01079139 RMS(Int)=  0.00766758
 Iteration 93 RMS(Cart)=  0.01079139 RMS(Int)=  0.00766758
 Iteration 94 RMS(Cart)=  0.01079139 RMS(Int)=  0.00766758
 Iteration 95 RMS(Cart)=  0.01079139 RMS(Int)=  0.00766758
 Iteration 96 RMS(Cart)=  0.01079139 RMS(Int)=  0.00766758
 Iteration 97 RMS(Cart)=  0.01079139 RMS(Int)=  0.00766758
 Iteration 98 RMS(Cart)=  0.01079139 RMS(Int)=  0.00766758
 Iteration 99 RMS(Cart)=  0.01079139 RMS(Int)=  0.00766758
 Iteration100 RMS(Cart)=  0.01079139 RMS(Int)=  0.00766758
 New curvilinear step not converged.
 ITry= 9 IFail=1 DXMaxC= 3.44D-02 DCOld= 1.00D+10 DXMaxT= 3.00D-01 DXLimC= 3.00D+00 Rises=F
 Iteration  1 RMS(Cart)=  0.01496629 RMS(Int)=  0.00003413
 Iteration  2 RMS(Cart)=  0.00002793 RMS(Int)=  0.00000000
 Iteration  3 RMS(Cart)=  0.00000000 RMS(Int)=  0.00000000
 ITry=10 IFail=0 DXMaxC= 1.74D-02 DCOld= 1.00D+10 DXMaxT= 3.00D-01 DXLimC= 3.00D+00 Rises=F
 ClnCor:  largest displacement from symmetrization is 1.26D-15 for atom     3.
 Variable       Old X    -DE/DX   Delta X   Delta X   Delta X     New X
                                 (Linear)    (Quad)   (Total)
    R1       11.88603  -0.00086   0.00000   0.29043   0.02904  11.91507
    R2        1.85517   0.00003   0.00000  -0.00007  -0.00001   1.85516
    A1        0.00839  -0.00000   0.00000  -0.07517  -0.00752   0.00088
         Item               Value     Threshold  Converged?
 Maximum Force            0.000861     0.000450     NO 
 RMS     Force            0.000497     0.000300     NO 
 Maximum Displacement     0.017427     0.001800     NO 
 RMS     Displacement     0.014979     0.001200     NO 
 Predicted change in Energy= 2.490169D-05
 GradGradGradGradGradGradGradGradGradGradGradGradGradGradGradGradGradGrad

                          Input orientation:                          
 ---------------------------------------------------------------------
 Center     Atomic      Atomic             Coordinates (Angstroms)
 Number     Number       Type             X           Y           Z
 ---------------------------------------------------------------------
      1          8           0       -0.917094    3.640244   -1.591795
      2         17           0       -1.471489   -1.958144    1.255313
      3          1           0       -1.002589    2.768408   -1.148688
 ---------------------------------------------------------------------
                    Distance matrix (angstroms):
                    1          2          3
     1  O    0.000000
     2  Cl   6.305183   0.000000
     3  H    0.981709   5.323474   0.000000
 This structure is nearly, but not quite of a higher symmetry.
 Consider Symm=Loose if the higher symmetry is desired.
 Stoichiometry    ClHO
 Framework group  C1[X(ClHO)]
 Deg. of freedom     3
 Full point group                 C1      NOp   1
 Omega: Change in point group or standard orientation.

 Old FWG=CS   [SG(Cl1H1O1)]
 New FWG=C01  [X(Cl1H1O1)]
 Largest Abelian subgroup         C1      NOp   1
 Largest concise Abelian subgroup C1      NOp   1
                         Standard orientation:                         
 ---------------------------------------------------------------------
 Center     Atomic      Atomic             Coordinates (Angstroms)
 Number     Number       Type             X           Y           Z
 ---------------------------------------------------------------------
      1          8           0       -1.629241    1.288826    3.604614
      2         17           0        0.839925   -0.664383   -1.858309
      3          1           0       -1.244796    0.983903    2.754334
 ---------------------------------------------------------------------
 Rotational constants (GHZ):   706651560.8837175           1.1296737           1.1296737
 Standard basis: SVP (5D, 7F)
 There are    39 symmetry adapted cartesian basis functions of A   symmetry.
 There are    37 symmetry adapted basis functions of A   symmetry.
    37 basis functions,    69 primitive gaussians,    39 cartesian basis functions
    13 alpha electrons       13 beta electrons
       nuclear repulsion energy        17.4162903867 Hartrees.
 NAtoms=    3 NActive=    3 NUniq=    3 SFac= 1.00D+00 NAtFMM=   60 NAOKFM=F Big=F
 Integral buffers will be    131072 words long.
 Raffenetti 2 integral format.
 Two-electron integral symmetry is turned on.
 Nuclear repulsion after empirical dispersion term =       17.4160059793 Hartrees.
 One-electron integrals computed using PRISM.
 NBasis=    37 RedAO= T EigKep=  5.60D-02  NBF=    37
 NBsUse=    37 1.00D-06 EigRej= -1.00D+00 NBFU=    37
 Initial guess from the checkpoint file:  "/tmp/Gau-10738.chk"
 B after Tr=     0.000000   -0.000000   -0.000000
         Rot=    0.647818   -0.283469   -0.485047   -0.514497 Ang= -99.25 deg.
 Keep R1 ints in memory in canonical form, NReq=7151157.
 Requested convergence on RMS density matrix=1.00D-08 within 128 cycles.
 Requested convergence on MAX density matrix=1.00D-06.
 Requested convergence on             energy=1.00D-06.
 No special actions if energy rises.
 Density matrix is not changing but DIIS error= 1.70D-05 CofLast= 1.32D-03.
 >>>>>>>>>> Convergence criterion not met.
 SCF Done:  E(RB3LYP) =  -535.578985630     A.U. after  129 cycles
            NFock=128  Conv=0.31D-06     -V/T= 2.0025
 Convergence failure -- run terminated.
 Error termination via Lnk1e in /share/apps/g16.a03/g16/l502.exe at Thu Mar  6 16:37:34 2025.
 Job cpu time:       0 days  0 hours  5 minutes 55.0 seconds.
 Elapsed time:       0 days  0 hours  0 minutes 45.5 seconds.
 File lengths (MBytes):  RWF=      6 Int=      0 D2E=      0 Chk=      1 Scr=      1
