70
 energy: -143.148001766120 gnorm: 0.103517293921 xtb: 6.6.1 (8d0f1dd)
O    -2.81807823     0.02155792     1.45582974
H    -3.38484201    -0.11070907     2.21781549
H    -3.02421426    -0.72460833     0.89007136
O    -5.42483625     0.21139759    -2.52913880
H    -4.62033588     0.10107362    -3.03898837
H    -5.72624870     1.09445060    -2.74983311
O    -0.17607591     0.50127751     2.03873582
H     0.19562227    -0.34663394     1.78928594
H    -1.09779072     0.53877059     1.77725073
O    -4.78505288    -1.49273176    -0.43675545
H    -5.23511490    -1.09167653    -1.18236786
H    -5.38860616    -2.18224925    -0.15457194
O    -0.19402295    -1.07620841    -3.30749760
H    -0.37284682    -0.85955032    -2.39075309
H     0.72705239    -1.34211525    -3.29162704
O     0.61538608    -3.55461309    -1.27109279
H     0.00981701    -3.80001586    -1.97280609
H     1.06853131    -4.37260219    -1.05921381
O    -0.62606152    -4.92259680    -3.50736288
H    -1.57861555    -4.81992687    -3.54527276
H    -0.32296037    -4.65212743    -4.37587575
O    -3.47638441    -3.50695412    -2.74176809
H    -2.99920340    -3.45946945    -1.91147798
H    -3.44203135    -2.58621547    -3.00709192
O    -1.21643171     0.15299935    -1.31058464
H    -0.44570881     0.63992481    -1.01355199
H    -1.88825448     0.06190694    -0.63257716
O    -3.02560975    -0.86887570    -3.37611777
H    -2.42788511    -0.50105705    -2.72283909
H    -2.33575064    -1.09746557    -4.00156111
O    -0.74534820     1.93390296    -4.49262443
Cl    -0.81305711     3.56293862    -3.99985617
H    -0.65969225     1.30086962    -3.76977019
O     1.64921155     3.65532183     3.81907452
Cl     2.25564935     5.10002806     4.48707283
H     1.31899760     3.13845720     4.56365279
O     0.79247287    -1.92303158     0.95861384
Cl     2.08993389    -2.19694338     2.02759984
H     0.91438869    -2.48051091     0.18083531
O     0.27254135     1.40976813     4.39109241
Cl     1.02420185     0.02020405     5.02770767
H    -0.00284828     1.06948694     3.53146613
C     5.08504679    -0.50704252     0.64385574
C     4.75446337    -0.12808270     1.93916517
C     3.76089443     0.81091634     2.14113165
C     3.03143038     1.29019124     1.04793971
C     3.21169052     0.78629192    -0.23988296
C     4.26016408    -0.11138225    -0.40506687
H     5.39092124    -0.46014031     2.74879102
H     3.40350643     0.99231342     3.14878456
C    -1.34475728     3.56762823     1.06858483
C    -2.08573657     3.23192873    -0.06725541
C    -2.06681080     4.16829037     2.10381471
C    -3.46602056     3.38453688    -0.10184470
H    -1.54999505     2.90164211    -0.94261694
C    -3.45103890     4.21724931     2.12785501
C    -4.16821686     3.75441471     1.03445551
H    -4.02203460     3.08005984    -0.97904327
H    -3.97800826     4.59674179     2.99334899
Cl     6.43631932    -1.55576994     0.36200156
Cl    -5.90867264     3.86216519     0.99175380
N     2.07911272     2.28603573     1.31424744
H     2.07584567     2.72120917     2.22329537
C     0.90336071     2.49817081     0.61180874
O     0.66122340     1.93982697    -0.43167389
N     0.01811562     3.30329248     1.30200703
H     0.31064422     3.54093968     2.23677914
H    -1.62740845     4.53430425     3.02597710
H     2.56729679     1.18692173    -1.00553132
Cl     4.34705777    -0.83436786    -1.97830890
