      -----------------------------------------------------------      
     |                   =====================                   |     
     |                           x T B                           |     
     |                   =====================                   |     
     |                         S. Grimme                         |     
     |          Mulliken Center for Theoretical Chemistry        |     
     |                    University of Bonn                     |     
      -----------------------------------------------------------      

   * xtb version 6.6.1 (8d0f1dd) compiled by 'stahn@M-Bot' on 2023-08-01

   xtb is free software: you can redistribute it and/or modify it under
   the terms of the GNU Lesser General Public License as published by
   the Free Software Foundation, either version 3 of the License, or
   (at your option) any later version.
   
   xtb is distributed in the hope that it will be useful,
   but WITHOUT ANY WARRANTY; without even the implied warranty of
   MERCHANTABILITY or FITNESS FOR A PARTICULAR PURPOSE.  See the
   GNU Lesser General Public License for more details.
   
   Cite this work as:
   * C. Bannwarth, E. Caldeweyher, S. Ehlert, A. Hansen, P. Pracht,
     J. Seibert, S. Spicher, S. Grimme, WIREs Comput. Mol. Sci., 2020, 11,
     e01493. DOI: 10.1002/wcms.1493
   
   for GFN2-xTB:
   * C. Bannwarth, S. Ehlert and S. Grimme., J. Chem. Theory Comput., 2019,
     15, 1652-1671. DOI: 10.1021/acs.jctc.8b01176
   for GFN1-xTB:
   * S. Grimme, C. Bannwarth, P. Shushkov, J. Chem. Theory Comput., 2017,
     13, 1989-2009. DOI: 10.1021/acs.jctc.7b00118
   for GFN0-xTB:
   * P. Pracht, E. Caldeweyher, S. Ehlert, S. Grimme, ChemRxiv, 2019, preprint.
     DOI: 10.26434/chemrxiv.8326202.v1
   for GFN-FF:
   * S. Spicher and S. Grimme, Angew. Chem. Int. Ed., 2020, 59, 15665-15673.
     DOI: 10.1002/anie.202004239
   
   for ALPB and GBSA implicit solvation:
   * S. Ehlert, M. Stahn, S. Spicher, S. Grimme, J. Chem. Theory Comput.,
     2021, 17, 4250-4261. DOI: 10.1021/acs.jctc.1c00471
   
   for DFT-D4:
   * E. Caldeweyher, C. Bannwarth and S. Grimme, J. Chem. Phys., 2017,
     147, 034112. DOI: 10.1063/1.4993215
   * E. Caldeweyher, S. Ehlert, A. Hansen, H. Neugebauer, S. Spicher,
     C. Bannwarth and S. Grimme, J. Chem. Phys., 2019, 150, 154122.
     DOI: 10.1063/1.5090222
   * E. Caldeweyher, J.-M. Mewes, S. Ehlert and S. Grimme, Phys. Chem. Chem. Phys.
     2020, 22, 8499-8512. DOI: 10.1039/D0CP00502A
   
   for sTDA-xTB:
   * S. Grimme and C. Bannwarth, J. Chem. Phys., 2016, 145, 054103.
     DOI: 10.1063/1.4959605
   
   in the mass-spec context:
   * V. Asgeirsson, C. Bauer and S. Grimme, Chem. Sci., 2017, 8, 4879.
     DOI: 10.1039/c7sc00601b
   * J. Koopman and S. Grimme, ACS Omega 2019, 4, 12, 15120-15133.
     DOI: 10.1021/acsomega.9b02011
   
   for metadynamics refer to:
   * S. Grimme, J. Chem. Theory Comput., 2019, 155, 2847-2862
     DOI: 10.1021/acs.jctc.9b00143
   
   for SPH calculations refer to:
   * S. Spicher and S. Grimme, J. Chem. Theory Comput., 2021, 17, 1701-1714
     DOI: 10.1021/acs.jctc.0c01306
   
   with help from (in alphabetical order)
   P. Atkinson, C. Bannwarth, F. Bohle, G. Brandenburg, E. Caldeweyher
   M. Checinski, S. Dohm, S. Ehlert, S. Ehrlich, I. Gerasimov, C. Hölzer
   A. Katbashev, J. Koopman, C. Lavigne, S. Lehtola, F. März, M. Müller,
   F. Musil, H. Neugebauer, J. Pisarek, C. Plett, P. Pracht, F. Pultar,
   J. Seibert, P. Shushkov, S. Spicher, M. Stahn, M. Steiner, T. Strunk,
   J. Stückrath, T. Rose, and J. Unsleber
   
 * started run on 2025/04/07 at 09:40:48.365     

           -------------------------------------------------
          |                Calculation Setup                |
           -------------------------------------------------

          program call               : xtb 199.xyz --input 199.inp --opt
          hostname                   : serv11
          coordinate file            : 199.xyz
          omp threads                :                     8

   ID    Z sym.   atoms
    1    8 O      1
    2   17 Cl     2
    3    1 H      3

           -------------------------------------------------
          |                 G F N 2 - x T B                 |
           -------------------------------------------------

        Reference                      10.1021/acs.jctc.8b01176
      * Hamiltonian:
        H0-scaling (s, p, d)           1.850000    2.230000    2.230000
        zeta-weighting                 0.500000
      * Dispersion:
        s8                             2.700000
        a1                             0.520000
        a2                             5.000000
        s9                             5.000000
      * Repulsion:
        kExp                           1.500000    1.000000
        rExp                           1.000000
      * Coulomb:
        alpha                          2.000000
        third order                    shell-resolved
        anisotropic                    true
        a3                             3.000000
        a5                             4.000000
        cn-shift                       1.200000
        cn-exp                         4.000000
        max-rad                        5.000000

q/qsh data taken from xtbrestart
CAMM data taken from xtbrestart

          ...................................................
          :                      SETUP                      :
          :.................................................:
          :  # basis functions                  15          :
          :  # atomic orbitals                  14          :
          :  # shells                            6          :
          :  # electrons                        14          :
          :  max. iterations                   800          :
          :  Hamiltonian                  GFN2-xTB          :
          :  restarted?                       true          :
          :  GBSA solvation                  false          :
          :  PC potential                    false          :
          :  electronic temp.         6000.0000000     K    :
          :  accuracy                    1.0000000          :
          :  -> integral cutoff          0.2500000E+02      :
          :  -> integral neglect         0.1000000E-07      :
          :  -> SCF convergence          0.1000000E-05 Eh   :
          :  -> wf. convergence          0.1000000E-03 e    :
          :  Broyden damping             0.4000000          :
          ...................................................

 iter      E             dE          RMSdq      gap      omega  full diag
   1     -9.0557175 -0.905572E+01  0.693E+00    2.56       0.0  T
   2     -9.0580115 -0.229401E-02  0.418E+00    2.63       1.0  T
   3     -9.0562444  0.176715E-02  0.163E+00    2.56       1.0  T
   4     -9.0596892 -0.344479E-02  0.487E-01    2.63       1.0  T
   5     -9.0598629 -0.173772E-03  0.179E-01    2.64       1.0  T
   6     -9.0598782 -0.152243E-04  0.116E-01    2.64       1.0  T
   7     -9.0598932 -0.150282E-04  0.191E-02    2.64       3.0  T
   8     -9.0598933 -0.113339E-06  0.614E-03    2.64       9.4  T
   9     -9.0598933 -0.406910E-07  0.391E-03    2.64      14.8  T
  10     -9.0598934 -0.184560E-07  0.322E-03    2.64      17.9  T
  11     -9.0598934 -0.201900E-07  0.810E-04    2.64      71.3  T
  12     -9.0598934 -0.114693E-08  0.882E-05    2.64     654.2  T

   *** convergence criteria satisfied after 12 iterations ***

         #    Occupation            Energy/Eh            Energy/eV
      -------------------------------------------------------------
         1        2.0000           -1.0772682             -29.3140
         2        2.0000           -0.6916863             -18.8217
         3        1.9998           -0.5736113             -15.6088
         4        1.9988           -0.5386675             -14.6579
         5        1.9892           -0.4970493             -13.5254
         6        1.9385           -0.4634478             -12.6111
         7        1.8881           -0.4515654             -12.2877 (HOMO)
         8        0.1855           -0.3545447              -9.6477 (LUMO)
         9                         -0.0167793              -0.4566
        10                         -0.0166544              -0.4532
        11                         -0.0145654              -0.3963
        12                         -0.0131939              -0.3590
       ...                                ...                  ...
        14                          0.0803353               2.1860
      -------------------------------------------------------------
                  HL-Gap            0.0970207 Eh            2.6401 eV
             Fermi-level           -0.3978732 Eh          -10.8267 eV

 SCC (total)                   0 d,  0 h,  0 min,  0.033 sec
 SCC setup                      ...        0 min,  0.000 sec (  0.460%)
 Dispersion                     ...        0 min,  0.000 sec (  0.181%)
 classical contributions        ...        0 min,  0.000 sec (  0.153%)
 integral evaluation            ...        0 min,  0.030 sec ( 89.108%)
 iterations                     ...        0 min,  0.003 sec (  8.668%)
 molecular gradient             ...        0 min,  0.000 sec (  1.025%)
 printout                       ...        0 min,  0.000 sec (  0.243%)

         :::::::::::::::::::::::::::::::::::::::::::::::::::::
         ::                     SUMMARY                     ::
         :::::::::::::::::::::::::::::::::::::::::::::::::::::
         :: total energy              -9.047989069563 Eh    ::
         :: gradient norm              0.078950985457 Eh/a0 ::
         :: HOMO-LUMO gap              2.640067238821 eV    ::
         ::.................................................::
         :: SCC energy                -9.059893374848 Eh    ::
         :: -> isotropic ES            0.019463292224 Eh    ::
         :: -> anisotropic ES         -0.002046102893 Eh    ::
         :: -> anisotropic XC         -0.000257607353 Eh    ::
         :: -> dispersion             -0.000596959006 Eh    ::
         :: repulsion energy           0.011904303801 Eh    ::
         :: add. restraining           0.000000000000 Eh    ::
         :: total charge               0.000000000000 e     ::
         :::::::::::::::::::::::::::::::::::::::::::::::::::::

      ----------------------------------------------------------- 
     |                   =====================                   |
     |                        A N C O P T                        |
     |                   =====================                   |
     |               Approximate Normal Coordinate               |
     |                Rational Function Optimizer                |
      ----------------------------------------------------------- 

          ...................................................
          :                      SETUP                      :
          :.................................................:
          :   optimization level            normal          :
          :   max. optcycles                   200          :
          :   ANC micro-cycles                  20          :
          :   degrees of freedom                 3          :
          :.................................................:
          :   RF solver                   davidson          :
          :   write xtbopt.log                true          :
          :   linear?                        false          :
          :   energy convergence         0.5000000E-05 Eh   :
          :   grad. convergence          0.1000000E-02 Eh/α :
          :   maxmium RF displ.          1.0000000          :
          :   Hlow (freq-cutoff)         0.1000000E-01      :
          :   Hmax (freq-cutoff)         5.0000000          :
          :   S6 in model hess.         20.0000000          :
          ...................................................

generating ANC from model Hessian ...
Using Lindh-Hessian (1995)
 Shifting diagonal of input Hessian by   0.000000000000000E+000
 Lowest  eigenvalues of input Hessian
    0.000000    0.000000    0.000000    0.000000    0.000000    0.000000
    0.056379    0.450801    1.132092
 Highest eigenvalues
    0.000000    0.000000    0.000000    0.056379    0.450801    1.132092
 

........................................................................
.............................. CYCLE    1 ..............................
........................................................................

 iter      E             dE          RMSdq      gap      omega  full diag
   1     -9.0598934 -0.905989E+01  0.100E-05    2.64       0.0  T
   2     -9.0598934 -0.319744E-13  0.604E-06    2.64    9551.6  T
   3     -9.0598934 -0.124345E-13  0.476E-06    2.64   12136.1  T
     SCC iter.                  ...        0 min,  0.001 sec
     gradient                   ...        0 min,  0.000 sec
 * total energy  :    -9.0479891 Eh     change       -0.5657697E-11 Eh
   gradient norm :     0.0789508 Eh/α   predicted     0.0000000E+00 (-100.00%)
   displ. norm   :     0.1588582 α      lambda       -0.1218760E-01
   maximum displ.:     0.1563453 α      in ANC's #2, #3, #1, ...

........................................................................
.............................. CYCLE    2 ..............................
........................................................................

 iter      E             dE          RMSdq      gap      omega  full diag
   1     -9.0735341 -0.907353E+01  0.809E-01    3.38       0.0  T
   2     -9.0735858 -0.517233E-04  0.528E-01    3.37       1.0  T
   3     -9.0735900 -0.417275E-05  0.834E-02    3.36       1.0  T
   4     -9.0735973 -0.738895E-05  0.362E-02    3.36       1.6  T
   5     -9.0735976 -0.296475E-06  0.778E-03    3.36       7.4  T
   6     -9.0735977 -0.479111E-07  0.551E-03    3.36      10.5  T
   7     -9.0735977 -0.337103E-07  0.348E-03    3.36      16.6  T
   8     -9.0735977 -0.206863E-07  0.124E-03    3.36      46.5  T
   9     -9.0735978 -0.442604E-08  0.391E-04    3.36     147.7  T
  10     -9.0735978 -0.235261E-09  0.559E-05    3.36    1032.4  T
     SCC iter.                  ...        0 min,  0.001 sec
     gradient                   ...        0 min,  0.000 sec
 * total energy  :    -9.0588050 Eh     change       -0.1081590E-01 Eh
   gradient norm :     0.0561363 Eh/α   predicted    -0.6247579E-02 ( -42.24%)
   displ. norm   :     0.4171966 α      lambda       -0.2300790E-01
   maximum displ.:     0.4071025 α      in ANC's #2, #1, #3, ...

........................................................................
.............................. CYCLE    3 ..............................
........................................................................

 iter      E             dE          RMSdq      gap      omega  full diag
   1     -9.0703528 -0.907035E+01  0.260E+00    5.54       0.0  T
   2     -9.0713641 -0.101137E-02  0.172E+00    5.53       1.0  T
   3     -9.0717812 -0.417088E-03  0.473E-01    5.47       1.0  T
   4     -9.0719402 -0.158979E-03  0.332E-01    5.45       1.0  T
   5     -9.0722127 -0.272534E-03  0.128E-01    5.38       1.0  T
   6     -9.0722618 -0.490467E-04  0.500E-02    5.35       1.2  T
   7     -9.0722666 -0.483630E-05  0.748E-03    5.33       7.7  T
   8     -9.0722666 -0.308562E-07  0.427E-03    5.33      13.5  T
   9     -9.0722666 -0.145918E-07  0.203E-03    5.33      28.5  T
  10     -9.0722667 -0.349391E-08  0.662E-04    5.33      87.2  T
  11     -9.0722667 -0.169248E-09  0.793E-05    5.33     727.7  T
     SCC iter.                  ...        0 min,  0.001 sec
     gradient                   ...        0 min,  0.000 sec
 * total energy  :    -9.0516906 Eh     change        0.7114369E-02 Eh
   gradient norm :     0.1315050 Eh/α   predicted    -0.1350625E-01 (-289.84%)
   displ. norm   :     0.2747314 α      lambda       -0.3555344E-01
   maximum displ.:     0.2629676 α      in ANC's #2, #1, #3, ...

........................................................................
.............................. CYCLE    4 ..............................
........................................................................

 iter      E             dE          RMSdq      gap      omega  full diag
   1     -9.0789919 -0.907899E+01  0.183E+00    3.88       0.0  T
   2     -9.0803023 -0.131036E-02  0.124E+00    3.96       1.0  T
   3     -9.0805081 -0.205754E-03  0.665E-01    3.99       1.0  T
   4     -9.0807057 -0.197621E-03  0.302E-01    4.02       1.0  T
   5     -9.0809093 -0.203649E-03  0.126E-01    4.07       1.0  T
   6     -9.0809590 -0.496466E-04  0.504E-02    4.10       1.1  T
   7     -9.0809655 -0.648477E-05  0.420E-03    4.11      13.8  T
   8     -9.0809655 -0.473026E-08  0.131E-03    4.11      44.2  T
   9     -9.0809655 -0.544814E-09  0.679E-04    4.11      85.0  T
  10     -9.0809655 -0.395744E-09  0.308E-04    4.11     187.2  T
     SCC iter.                  ...        0 min,  0.001 sec
     gradient                   ...        0 min,  0.000 sec
 * total energy  :    -9.0644484 Eh     change       -0.1275777E-01 Eh
   gradient norm :     0.0179629 Eh/α   predicted    -0.1911848E-01 (  49.86%)
   displ. norm   :     0.0343609 α      lambda       -0.5811101E-03
   maximum displ.:     0.0330294 α      in ANC's #2, #1, #3, ...

........................................................................
.............................. CYCLE    5 ..............................
........................................................................

 iter      E             dE          RMSdq      gap      omega  full diag
   1     -9.0812554 -0.908126E+01  0.189E-01    4.30       0.0  T
   2     -9.0812613 -0.596343E-05  0.125E-01    4.29       1.0  T
   3     -9.0812628 -0.143978E-05  0.351E-02    4.29       1.6  T
   4     -9.0812632 -0.434388E-06  0.209E-02    4.29       2.8  T
   5     -9.0812639 -0.664471E-06  0.964E-03    4.28       6.0  T
   6     -9.0812642 -0.343649E-06  0.144E-03    4.28      40.1  T
   7     -9.0812642 -0.388926E-08  0.554E-04    4.28     104.3  T
   8     -9.0812642 -0.125903E-09  0.206E-04    4.28     279.9  T
     SCC iter.                  ...        0 min,  0.001 sec
     gradient                   ...        0 min,  0.000 sec
 * total energy  :    -9.0648269 Eh     change       -0.3784875E-03 Eh
   gradient norm :     0.0057346 Eh/α   predicted    -0.2908968E-03 ( -23.14%)
   displ. norm   :     0.0292462 α      lambda       -0.1221904E-03
   maximum displ.:     0.0250129 α      in ANC's #1, #2, #3, ...

........................................................................
.............................. CYCLE    6 ..............................
........................................................................

 iter      E             dE          RMSdq      gap      omega  full diag
   1     -9.0817728 -0.908177E+01  0.116E-01    4.39       0.0  T
   2     -9.0817774 -0.455578E-05  0.771E-02    4.39       1.0  T
   3     -9.0817779 -0.470945E-06  0.343E-02    4.38       1.7  T
   4     -9.0817782 -0.356592E-06  0.141E-02    4.38       4.1  T
   5     -9.0817787 -0.453750E-06  0.554E-03    4.38      10.4  T
   6     -9.0817788 -0.103463E-06  0.133E-03    4.38      43.4  T
   7     -9.0817788 -0.508625E-08  0.546E-04    4.38     105.8  T
   8     -9.0817788 -0.255600E-09  0.174E-04    4.38     331.8  T
     SCC iter.                  ...        0 min,  0.001 sec
     gradient                   ...        0 min,  0.000 sec
 * total energy  :    -9.0648647 Eh     change       -0.3783998E-04 Eh
   gradient norm :     0.0022736 Eh/α   predicted    -0.6114895E-04 (  61.60%)
   displ. norm   :     0.0135797 α      lambda       -0.2026685E-04
   maximum displ.:     0.0134796 α      in ANC's #1, #2, #3, ...

........................................................................
.............................. CYCLE    7 ..............................
........................................................................

 iter      E             dE          RMSdq      gap      omega  full diag
   1     -9.0814840 -0.908148E+01  0.342E-02    4.36       0.0  T
   2     -9.0814843 -0.300644E-06  0.214E-02    4.36       2.7  T
   3     -9.0814844 -0.213147E-07  0.787E-03    4.36       7.3  T
   4     -9.0814844 -0.137434E-07  0.291E-03    4.36      19.8  T
   5     -9.0814844 -0.195160E-07  0.143E-03    4.36      40.3  T
   6     -9.0814844 -0.514217E-08  0.347E-04    4.36     166.2  T
   7     -9.0814844 -0.101725E-09  0.218E-04    4.36     264.9  T
     SCC iter.                  ...        0 min,  0.001 sec
     gradient                   ...        0 min,  0.000 sec
 * total energy  :    -9.0648736 Eh     change       -0.8920318E-05 Eh
   gradient norm :     0.0003783 Eh/α   predicted    -0.1013526E-04 (  13.62%)
   displ. norm   :     0.0033106 α      lambda       -0.6643909E-06
   maximum displ.:     0.0029964 α      in ANC's #1, #2, #3, ...

........................................................................
.............................. CYCLE    8 ..............................
........................................................................

 iter      E             dE          RMSdq      gap      omega  full diag
   1     -9.0815305 -0.908153E+01  0.105E-02    4.36       0.0  T
   2     -9.0815305 -0.340362E-08  0.638E-03    4.36       9.0  T
   3     -9.0815305 -0.289415E-08  0.108E-03    4.36      53.6  T
   4     -9.0815305 -0.654525E-09  0.452E-04    4.36     127.7  T
   5     -9.0815305 -0.222030E-09  0.362E-04    4.36     159.4  T
     SCC iter.                  ...        0 min,  0.000 sec
     gradient                   ...        0 min,  0.000 sec
 * total energy  :    -9.0648738 Eh     change       -0.1497649E-06 Eh
   gradient norm :     0.0003411 Eh/α   predicted    -0.3317206E-06 ( 121.49%)
   displ. norm   :     0.0011727 α      lambda       -0.2028979E-06
   maximum displ.:     0.0009220 α      in ANC's #1, #2, #3, ...

   *** GEOMETRY OPTIMIZATION CONVERGED AFTER 8 ITERATIONS ***

------------------------------------------------------------------------
 total energy gain   :        -0.0168847 Eh      -10.5953 kcal/mol
 total RMSD          :         0.2016397 a0        0.1067 Å
 total power (kW/mol):        -5.5413439 (step)-3929.3459 (real)
------------------------------------------------------------------------

 ANCopt (total)                0 d,  0 h,  0 min,  0.011 sec
 optimizer setup                ...        0 min,  0.000 sec (  0.840%)
 model hessian                  ...        0 min,  0.000 sec (  0.796%)
 ANC generation                 ...        0 min,  0.000 sec (  0.585%)
 coordinate transformation      ...        0 min,  0.000 sec (  0.532%)
 single point calculation       ...        0 min,  0.010 sec ( 84.945%)
 optimization log               ...        0 min,  0.001 sec (  5.504%)
 hessian update                 ...        0 min,  0.000 sec (  0.827%)
 rational function              ...        0 min,  0.000 sec (  2.505%)

================
 final structure:
================
3
 xtb: 6.6.1 (8d0f1dd)
O            1.95331798916242       -0.51680941075585        4.88698913785217
Cl           3.25686600073096       -0.82910119977243        3.83074408648916
H            2.34013473114765       -0.35195236128398        5.75561276268857
 
 Bond Distances (Angstroems)
 ---------------------------
O1-Cl2=1.7066        O1-H3=0.9650         Cl2-O1=1.7066        H3-O1=0.9650         
 O  H  Rav=0.9650 sigma=0.0000  Rmin=0.9650  Rmax=0.9650     1
 Cl O  Rav=1.7066 sigma=0.0000  Rmin=1.7066  Rmax=1.7066     1
 
 selected bond angles (degree)
 --------------------
H3-O1-Cl2=106.39               
 
 selected dihedral angles (degree)
 ---------------------------------

           -------------------------------------------------
          |                Final Singlepoint                |
           -------------------------------------------------

          ...................................................
          :                      SETUP                      :
          :.................................................:
          :  # basis functions                  15          :
          :  # atomic orbitals                  14          :
          :  # shells                            6          :
          :  # electrons                        14          :
          :  max. iterations                   800          :
          :  Hamiltonian                  GFN2-xTB          :
          :  restarted?                      false          :
          :  GBSA solvation                  false          :
          :  PC potential                    false          :
          :  electronic temp.         6000.0000000     K    :
          :  accuracy                    1.0000000          :
          :  -> integral cutoff          0.2500000E+02      :
          :  -> integral neglect         0.1000000E-07      :
          :  -> SCF convergence          0.1000000E-05 Eh   :
          :  -> wf. convergence          0.1000000E-03 e    :
          :  Broyden damping             0.4000000          :
          ...................................................

 iter      E             dE          RMSdq      gap      omega  full diag
   1     -9.0815305 -0.908153E+01  0.100E-04    4.36       0.0  T
   2     -9.0815305 -0.336620E-11  0.750E-05    4.36     769.6  T
   3     -9.0815305 -0.550138E-11  0.488E-05    4.36    1181.9  T

   *** convergence criteria satisfied after 3 iterations ***

         #    Occupation            Energy/Eh            Energy/eV
      -------------------------------------------------------------
         1        2.0000           -1.0752145             -29.2581
         2        2.0000           -0.7091917             -19.2981
         3        2.0000           -0.5983898             -16.2830
         4        2.0000           -0.5548879             -15.0993
         5        1.9998           -0.5215003             -14.1907
         6        1.9895           -0.4478201             -12.1858
         7        1.9757           -0.4317293             -11.7480 (HOMO)
         8        0.0350           -0.2716163              -7.3911 (LUMO)
         9                         -0.0111558              -0.3036
        10                         -0.0109033              -0.2967
        11                         -0.0087338              -0.2377
        12                         -0.0007191              -0.0196
       ...                                ...                  ...
        14                          0.1356548               3.6914
      -------------------------------------------------------------
                  HL-Gap            0.1601130 Eh            4.3569 eV
             Fermi-level           -0.3481406 Eh           -9.4734 eV

 SCC (total)                   0 d,  0 h,  0 min,  0.001 sec
 SCC setup                      ...        0 min,  0.000 sec (  9.422%)
 Dispersion                     ...        0 min,  0.000 sec (  2.198%)
 classical contributions        ...        0 min,  0.000 sec (  1.518%)
 integral evaluation            ...        0 min,  0.000 sec ( 19.210%)
 iterations                     ...        0 min,  0.000 sec ( 35.567%)
 molecular gradient             ...        0 min,  0.000 sec ( 22.821%)
 printout                       ...        0 min,  0.000 sec (  5.182%)

         :::::::::::::::::::::::::::::::::::::::::::::::::::::
         ::                     SUMMARY                     ::
         :::::::::::::::::::::::::::::::::::::::::::::::::::::
         :: total energy              -9.064873761360 Eh    ::
         :: gradient norm              0.000337665600 Eh/a0 ::
         :: HOMO-LUMO gap              4.356896738147 eV    ::
         ::.................................................::
         :: SCC energy                -9.081530485255 Eh    ::
         :: -> isotropic ES            0.018165453926 Eh    ::
         :: -> anisotropic ES         -0.003253000363 Eh    ::
         :: -> anisotropic XC         -0.001703653802 Eh    ::
         :: -> dispersion             -0.000594281300 Eh    ::
         :: repulsion energy           0.016656723366 Eh    ::
         :: add. restraining           0.000000000000 Eh    ::
         :: total charge               0.000000001977 e     ::
         :::::::::::::::::::::::::::::::::::::::::::::::::::::

           -------------------------------------------------
          |                Property Printout                |
           -------------------------------------------------

    * Orbital Energies and Occupations

         #    Occupation            Energy/Eh            Energy/eV
      -------------------------------------------------------------
         1        2.0000           -1.0752145             -29.2581
         2        2.0000           -0.7091917             -19.2981
         3        2.0000           -0.5983898             -16.2830
         4        2.0000           -0.5548879             -15.0993
         5        1.9998           -0.5215003             -14.1907
         6        1.9895           -0.4478201             -12.1858
         7        1.9757           -0.4317293             -11.7480 (HOMO)
         8        0.0350           -0.2716163              -7.3911 (LUMO)
         9                         -0.0111558              -0.3036
        10                         -0.0109033              -0.2967
        11                         -0.0087338              -0.2377
        12                         -0.0007191              -0.0196
        13                          0.1037902               2.8243
        14                          0.1356548               3.6914
      -------------------------------------------------------------
                  HL-Gap            0.1601130 Eh            4.3569 eV
             Fermi-level           -0.3481406 Eh           -9.4734 eV

     #   Z          covCN         q      C6AA      α(0)
     1   8 O        1.733    -0.376    20.368     6.094
     2  17 Cl       0.931     0.052    97.644    15.117
     3   1 H        0.808     0.324     0.652     1.268

 Mol. C6AA /au·bohr⁶  :        229.924146
 Mol. C8AA /au·bohr⁸  :       7521.020220
 Mol. α(0) /au        :         22.479116


Wiberg/Mayer (AO) data.
largest (>0.10) Wiberg bond orders for each atom

 ---------------------------------------------------------------------------
     #   Z sym  total        # sym  WBO       # sym  WBO       # sym  WBO
 ---------------------------------------------------------------------------
     1   8 O    1.907 --     2 Cl   1.016     3 H    0.891
     2  17 Cl   1.019 --     1 O    1.016
     3   1 H    0.894 --     1 O    0.891
 ---------------------------------------------------------------------------

Topologies differ in total number of bonds
Writing topology from bond orders to xtbtopo.mol

molecular dipole:
                 x           y           z       tot (Debye)
 q only:        0.365       0.070       0.428
   full:        0.422       0.070       0.442       1.564
molecular quadrupole (traceless):
                xx          xy          yy          xz          yz          zz
 q only:       -1.271      -0.148      -6.176       7.628       0.687       7.447
  q+dip:       -2.115      -0.028      -6.280       9.055       0.773       8.394
   full:       -1.566      -0.288      -6.976       8.240       1.023       8.542

           -------------------------------------------------
          |                Geometry Summary                 |
           -------------------------------------------------

      molecular mass/u    :       52.4602833
   center of mass at/Å    :        2.8416950      -0.7246905       4.1898627
  moments of inertia/u·Å² :        0.7947388E+00   0.3423338E+02   0.3502811E+02
rotational constants/cm⁻¹ :        0.2121154E+02   0.4924327E+00   0.4812601E+00

 * 1 selected distances

     #   Z          #   Z                                           value/Å
     1   8 O        3   1 H                                       0.9650452 (max)

 * 1 distinct bonds (by element types)

   Z      Z             #   av. dist./Å        max./Å        min./Å
   1 H    8 O           1     0.9650452     0.9650452     0.9650452


optimized geometry written to: xtbopt.xyz


           -------------------------------------------------
          | TOTAL ENERGY               -9.064873761360 Eh   |
          | GRADIENT NORM               0.000337665600 Eh/α |
          | HOMO-LUMO GAP               4.356896738147 eV   |
           -------------------------------------------------

------------------------------------------------------------------------
 * finished run on 2025/04/07 at 09:40:48.477     
------------------------------------------------------------------------
 total:
 * wall-time:     0 d,  0 h,  0 min,  0.111 sec
 *  cpu-time:     0 d,  0 h,  0 min,  0.461 sec
 * ratio c/w:     4.144 speedup
 SCF:
 * wall-time:     0 d,  0 h,  0 min,  0.033 sec
 *  cpu-time:     0 d,  0 h,  0 min,  0.243 sec
 * ratio c/w:     7.280 speedup
 ANC optimizer:
 * wall-time:     0 d,  0 h,  0 min,  0.013 sec
 *  cpu-time:     0 d,  0 h,  0 min,  0.102 sec
 * ratio c/w:     7.973 speedup

