3
 energy: -9.064873733046 gnorm: 0.000370731467 xtb: 6.6.1 (8d0f1dd)
O            2.06961586434147       -0.87061984145258        4.30159980942103
Cl           3.59080466175591       -0.95593344401092        3.53397438825199
H            1.65892267240348       -1.73708410004684        4.18903048345965
