      -----------------------------------------------------------      
     |                   =====================                   |     
     |                           x T B                           |     
     |                   =====================                   |     
     |                         S. Grimme                         |     
     |          Mulliken Center for Theoretical Chemistry        |     
     |                    University of Bonn                     |     
      -----------------------------------------------------------      

   * xtb version 6.6.1 (8d0f1dd) compiled by 'stahn@M-Bot' on 2023-08-01

   xtb is free software: you can redistribute it and/or modify it under
   the terms of the GNU Lesser General Public License as published by
   the Free Software Foundation, either version 3 of the License, or
   (at your option) any later version.
   
   xtb is distributed in the hope that it will be useful,
   but WITHOUT ANY WARRANTY; without even the implied warranty of
   MERCHANTABILITY or FITNESS FOR A PARTICULAR PURPOSE.  See the
   GNU Lesser General Public License for more details.
   
   Cite this work as:
   * C. Bannwarth, E. Caldeweyher, S. Ehlert, A. Hansen, P. Pracht,
     J. Seibert, S. Spicher, S. Grimme, WIREs Comput. Mol. Sci., 2020, 11,
     e01493. DOI: 10.1002/wcms.1493
   
   for GFN2-xTB:
   * C. Bannwarth, S. Ehlert and S. Grimme., J. Chem. Theory Comput., 2019,
     15, 1652-1671. DOI: 10.1021/acs.jctc.8b01176
   for GFN1-xTB:
   * S. Grimme, C. Bannwarth, P. Shushkov, J. Chem. Theory Comput., 2017,
     13, 1989-2009. DOI: 10.1021/acs.jctc.7b00118
   for GFN0-xTB:
   * P. Pracht, E. Caldeweyher, S. Ehlert, S. Grimme, ChemRxiv, 2019, preprint.
     DOI: 10.26434/chemrxiv.8326202.v1
   for GFN-FF:
   * S. Spicher and S. Grimme, Angew. Chem. Int. Ed., 2020, 59, 15665-15673.
     DOI: 10.1002/anie.202004239
   
   for ALPB and GBSA implicit solvation:
   * S. Ehlert, M. Stahn, S. Spicher, S. Grimme, J. Chem. Theory Comput.,
     2021, 17, 4250-4261. DOI: 10.1021/acs.jctc.1c00471
   
   for DFT-D4:
   * E. Caldeweyher, C. Bannwarth and S. Grimme, J. Chem. Phys., 2017,
     147, 034112. DOI: 10.1063/1.4993215
   * E. Caldeweyher, S. Ehlert, A. Hansen, H. Neugebauer, S. Spicher,
     C. Bannwarth and S. Grimme, J. Chem. Phys., 2019, 150, 154122.
     DOI: 10.1063/1.5090222
   * E. Caldeweyher, J.-M. Mewes, S. Ehlert and S. Grimme, Phys. Chem. Chem. Phys.
     2020, 22, 8499-8512. DOI: 10.1039/D0CP00502A
   
   for sTDA-xTB:
   * S. Grimme and C. Bannwarth, J. Chem. Phys., 2016, 145, 054103.
     DOI: 10.1063/1.4959605
   
   in the mass-spec context:
   * V. Asgeirsson, C. Bauer and S. Grimme, Chem. Sci., 2017, 8, 4879.
     DOI: 10.1039/c7sc00601b
   * J. Koopman and S. Grimme, ACS Omega 2019, 4, 12, 15120-15133.
     DOI: 10.1021/acsomega.9b02011
   
   for metadynamics refer to:
   * S. Grimme, J. Chem. Theory Comput., 2019, 155, 2847-2862
     DOI: 10.1021/acs.jctc.9b00143
   
   for SPH calculations refer to:
   * S. Spicher and S. Grimme, J. Chem. Theory Comput., 2021, 17, 1701-1714
     DOI: 10.1021/acs.jctc.0c01306
   
   with help from (in alphabetical order)
   P. Atkinson, C. Bannwarth, F. Bohle, G. Brandenburg, E. Caldeweyher
   M. Checinski, S. Dohm, S. Ehlert, S. Ehrlich, I. Gerasimov, C. Hölzer
   A. Katbashev, J. Koopman, C. Lavigne, S. Lehtola, F. März, M. Müller,
   F. Musil, H. Neugebauer, J. Pisarek, C. Plett, P. Pracht, F. Pultar,
   J. Seibert, P. Shushkov, S. Spicher, M. Stahn, M. Steiner, T. Strunk,
   J. Stückrath, T. Rose, and J. Unsleber
   
 * started run on 2025/04/07 at 09:40:48.604     

           -------------------------------------------------
          |                Calculation Setup                |
           -------------------------------------------------

          program call               : xtb 229.xyz --input 229.inp --opt
          hostname                   : serv11
          coordinate file            : 229.xyz
          omp threads                :                     8

   ID    Z sym.   atoms
    1    8 O      1
    2   17 Cl     2
    3    1 H      3

molecular fragmentation (1/2 indicates fragments):
121
# atoms in fragment 1/2:     2     1
 fragment masses (1/2) :       17.01       35.45
CMA distance (Bohr)    :   5.281
constraining FC (au)   :  0.0500

           -------------------------------------------------
          |                 G F N 2 - x T B                 |
           -------------------------------------------------

        Reference                      10.1021/acs.jctc.8b01176
      * Hamiltonian:
        H0-scaling (s, p, d)           1.850000    2.230000    2.230000
        zeta-weighting                 0.500000
      * Dispersion:
        s8                             2.700000
        a1                             0.520000
        a2                             5.000000
        s9                             5.000000
      * Repulsion:
        kExp                           1.500000    1.000000
        rExp                           1.000000
      * Coulomb:
        alpha                          2.000000
        third order                    shell-resolved
        anisotropic                    true
        a3                             3.000000
        a5                             4.000000
        cn-shift                       1.200000
        cn-exp                         4.000000
        max-rad                        5.000000

q/qsh data taken from xtbrestart
CAMM data taken from xtbrestart

          ...................................................
          :                      SETUP                      :
          :.................................................:
          :  # basis functions                  15          :
          :  # atomic orbitals                  14          :
          :  # shells                            6          :
          :  # electrons                        14          :
          :  max. iterations                   800          :
          :  Hamiltonian                  GFN2-xTB          :
          :  restarted?                       true          :
          :  GBSA solvation                  false          :
          :  PC potential                    false          :
          :  electronic temp.         6000.0000000     K    :
          :  accuracy                    1.0000000          :
          :  -> integral cutoff          0.2500000E+02      :
          :  -> integral neglect         0.1000000E-07      :
          :  -> SCF convergence          0.1000000E-05 Eh   :
          :  -> wf. convergence          0.1000000E-03 e    :
          :  Broyden damping             0.4000000          :
          ...................................................

 iter      E             dE          RMSdq      gap      omega  full diag
   1     -9.0052396 -0.900524E+01  0.767E+00    0.31       0.0  T
   2     -8.8195913  0.185648E+00  0.907E+00    0.04       1.0  T
   3     -8.9103142 -0.907228E-01  0.629E+00    0.19       1.0  T
   4     -9.0281808 -0.117867E+00  0.575E-01    0.31       1.0  T
   5     -9.0283865 -0.205741E-03  0.334E-01    0.32       1.0  T
   6     -9.0284744 -0.878517E-04  0.153E-01    0.32       1.0  T
   7     -9.0283568  0.117603E-03  0.198E-01    0.33       1.0  T
   8     -9.0284705 -0.113683E-03  0.861E-02    0.31       1.0  T
   9     -9.0284920 -0.215909E-04  0.327E-02    0.32       1.8  T
  10     -9.0284959 -0.382850E-05  0.360E-03    0.32      16.0  T
  11     -9.0284958  0.297639E-07  0.425E-03    0.32      13.6  T
  12     -9.0284959 -0.598205E-07  0.604E-04    0.32      95.7  T
  13     -9.0284959  0.458120E-08  0.119E-03    0.32      48.4  T
  14     -9.0284959 -0.501150E-08  0.349E-05    0.32    1654.1  T

   *** convergence criteria satisfied after 14 iterations ***

         #    Occupation            Energy/Eh            Energy/eV
      -------------------------------------------------------------
         1        2.0000           -1.0864142             -29.5628
         2        2.0000           -0.6896128             -18.7653
         3        1.9944           -0.5631677             -15.3246
         4        1.7916           -0.4924286             -13.3997
         5        1.6717           -0.4824772             -13.1289
         6        1.6661           -0.4820942             -13.1185
         7        1.5605           -0.4756266             -12.9425 (HOMO)
         8        1.3158           -0.4639780             -12.6255 (LUMO)
         9                         -0.0257818              -0.7016
        10                         -0.0255956              -0.6965
        11                         -0.0247873              -0.6745
        12                         -0.0243741              -0.6633
       ...                                ...                  ...
        14                          0.2200501               5.9879
      -------------------------------------------------------------
                  HL-Gap            0.0116486 Eh            0.3170 eV
             Fermi-level           -0.4515523 Eh          -12.2874 eV

 SCC (total)                   0 d,  0 h,  0 min,  0.025 sec
 SCC setup                      ...        0 min,  0.000 sec (  0.795%)
 Dispersion                     ...        0 min,  0.000 sec (  0.253%)
 classical contributions        ...        0 min,  0.000 sec (  0.179%)
 integral evaluation            ...        0 min,  0.021 sec ( 85.582%)
 iterations                     ...        0 min,  0.003 sec ( 11.436%)
 molecular gradient             ...        0 min,  0.000 sec (  1.260%)
 printout                       ...        0 min,  0.000 sec (  0.277%)

         :::::::::::::::::::::::::::::::::::::::::::::::::::::
         ::                     SUMMARY                     ::
         :::::::::::::::::::::::::::::::::::::::::::::::::::::
         :: total energy              -9.004358144356 Eh    ::
         :: gradient norm              0.059120787993 Eh/a0 ::
         :: HOMO-LUMO gap              0.316973828457 eV    ::
         ::.................................................::
         :: SCC energy                -9.028495900561 Eh    ::
         :: -> isotropic ES            0.019238571729 Eh    ::
         :: -> anisotropic ES         -0.001774761153 Eh    ::
         :: -> anisotropic XC         -0.001122459882 Eh    ::
         :: -> dispersion             -0.000558498677 Eh    ::
         :: repulsion energy           0.024137750618 Eh    ::
         :: add. restraining           0.000000000000 Eh    ::
         :: total charge               0.000000000021 e     ::
         :::::::::::::::::::::::::::::::::::::::::::::::::::::

      ----------------------------------------------------------- 
     |                   =====================                   |
     |                        A N C O P T                        |
     |                   =====================                   |
     |               Approximate Normal Coordinate               |
     |                Rational Function Optimizer                |
      ----------------------------------------------------------- 

          ...................................................
          :                      SETUP                      :
          :.................................................:
          :   optimization level            normal          :
          :   max. optcycles                   200          :
          :   ANC micro-cycles                  20          :
          :   degrees of freedom                 3          :
          :.................................................:
          :   RF solver                   davidson          :
          :   write xtbopt.log                true          :
          :   linear?                        false          :
          :   energy convergence         0.5000000E-05 Eh   :
          :   grad. convergence          0.1000000E-02 Eh/α :
          :   maxmium RF displ.          1.0000000          :
          :   Hlow (freq-cutoff)         0.1000000E-01      :
          :   Hmax (freq-cutoff)         5.0000000          :
          :   S6 in model hess.         20.0000000          :
          ...................................................

generating ANC from model Hessian ...
Using Lindh-Hessian (1995)
 Shifting diagonal of input Hessian by   9.146640222454348E-003
 Lowest  eigenvalues of input Hessian
    0.000000    0.000000    0.000000    0.000000    0.000000    0.000000
    0.010000    0.010945    1.390148
 Highest eigenvalues
    0.000000    0.000000    0.000000    0.010000    0.010945    1.390148
 

........................................................................
.............................. CYCLE    1 ..............................
........................................................................

 iter      E             dE          RMSdq      gap      omega  full diag
   1     -9.0284959 -0.902850E+01  0.201E-05    0.32       0.0  T
   2     -9.0284959  0.216289E-10  0.778E-05    0.32     741.8  T
   3     -9.0284959 -0.229896E-10  0.363E-06    0.32   15884.9  T
     SCC iter.                  ...        0 min,  0.001 sec
     gradient                   ...        0 min,  0.000 sec
 * total energy  :    -9.0043581 Eh     change       -0.1469047E-11 Eh
   gradient norm :     0.0591209 Eh/α   predicted     0.0000000E+00 (-100.00%)
   displ. norm   :     0.4688918 α      lambda       -0.6077140E-02
   maximum displ.:     0.3417964 α      in ANC's #2, #1, #3, ...

........................................................................
.............................. CYCLE    2 ..............................
........................................................................

 iter      E             dE          RMSdq      gap      omega  full diag
   1     -9.0250393 -0.902504E+01  0.131E+00    0.80       0.0  T
   2     -9.0190241  0.601525E-02  0.156E+00    0.73       1.0  T
   3     -9.0225850 -0.356094E-02  0.113E+00    0.80       1.0  T
   4     -9.0257382 -0.315316E-02  0.657E-02    0.80       1.0  T
   5     -9.0257400 -0.186985E-05  0.308E-02    0.80       1.9  T
   6     -9.0257410 -0.940469E-06  0.203E-02    0.80       2.8  T
   7     -9.0257416 -0.608962E-06  0.708E-03    0.80       8.2  T
   8     -9.0257416 -0.398954E-07  0.201E-03    0.80      28.8  T
   9     -9.0257416 -0.336787E-08  0.999E-04    0.80      57.8  T
  10     -9.0257416 -0.158253E-08  0.914E-05    0.80     631.9  T
     SCC iter.                  ...        0 min,  0.001 sec
     gradient                   ...        0 min,  0.000 sec
 * total energy  :    -9.0125566 Eh     change       -0.8198406E-02 Eh
   gradient norm :     0.0380175 Eh/α   predicted    -0.3706628E-02 ( -54.79%)
   displ. norm   :     0.7934498 α      lambda       -0.1889930E-01
   maximum displ.:     0.7459561 α      in ANC's #1, #2, #3, ...

........................................................................
.............................. CYCLE    3 ..............................
........................................................................

 iter      E             dE          RMSdq      gap      omega  full diag
   1     -9.0577431 -0.905774E+01  0.352E+00    3.02       0.0  T
   2     -9.0579173 -0.174234E-03  0.213E+00    3.00       1.0  T
   3     -9.0579419 -0.245733E-04  0.299E-01    3.00       1.0  T
   4     -9.0580393 -0.974125E-04  0.142E-01    2.99       1.0  T
   5     -9.0580746 -0.353241E-04  0.104E-01    3.00       1.0  T
   6     -9.0580968 -0.221855E-04  0.614E-02    3.01       1.0  T
   7     -9.0581047 -0.794257E-05  0.111E-02    3.03       5.2  T
   8     -9.0581048 -0.566106E-07  0.418E-03    3.03      13.8  T
   9     -9.0581048 -0.114063E-07  0.252E-03    3.03      22.9  T
  10     -9.0581048 -0.718767E-08  0.378E-04    3.03     152.7  T
  11     -9.0581048 -0.927791E-10  0.490E-05    3.03    1178.5  T
     SCC iter.                  ...        0 min,  0.001 sec
     gradient                   ...        0 min,  0.000 sec
 * total energy  :    -9.0505500 Eh     change       -0.3799349E-01 Eh
   gradient norm :     0.0927376 Eh/α   predicted    -0.1539883E-01 ( -59.47%)
   displ. norm   :     0.8842741 α      lambda       -0.5269419E-01
   maximum displ.:     0.8827665 α      in ANC's #1, #3, #2, ...

........................................................................
.............................. CYCLE    4 ..............................
........................................................................

 iter      E             dE          RMSdq      gap      omega  full diag
   1     -8.9758867 -0.897589E+01  0.599E+00    5.73       0.0  T
   2     -8.9832553 -0.736857E-02  0.412E+00    5.82       1.0  T
   3     -8.9882871 -0.503189E-02  0.146E+00    5.77       1.0  T
   4     -8.9902003 -0.191317E-02  0.100E+00    5.73       1.0  T
   5     -8.9923388 -0.213848E-02  0.253E-01    5.67       1.0  T
   6     -8.9923748 -0.359679E-04  0.135E-01    5.67       1.0  T
   7     -8.9923866 -0.117979E-04  0.186E-02    5.66       3.1  T
   8     -8.9923866 -0.281728E-07  0.797E-03    5.66       7.2  T
   9     -8.9923867 -0.875302E-07  0.312E-03    5.66      18.5  T
  10     -8.9923867 -0.102501E-07  0.130E-03    5.66      44.3  T
  11     -8.9923867 -0.669877E-09  0.939E-04    5.66      61.5  T
  12     -8.9923867 -0.507836E-09  0.903E-05    5.66     639.7  T
     SCC iter.                  ...        0 min,  0.001 sec
     gradient                   ...        0 min,  0.000 sec
 * total energy  :    -8.9554463 Eh     change        0.9510373E-01 Eh
   gradient norm :     0.5206732 Eh/α   predicted    -0.4694897E-01 (-149.37%)
   displ. norm   :     0.5347387 α      lambda       -0.2766894E+00
   maximum displ.:     0.4496741 α      in ANC's #1, #2, #3, ...

........................................................................
.............................. CYCLE    5 ..............................
........................................................................

 iter      E             dE          RMSdq      gap      omega  full diag
   1     -9.0635469 -0.906355E+01  0.460E+00    3.71       0.0  T
   2     -9.0751959 -0.116489E-01  0.299E+00    3.99       1.0  T
   3     -9.0769690 -0.177313E-02  0.194E+00    4.04       1.0  T
   4     -9.0793819 -0.241293E-02  0.819E-01    4.15       1.0  T
   5     -9.0810710 -0.168914E-02  0.346E-01    4.26       1.0  T
   6     -9.0814117 -0.340634E-03  0.155E-01    4.33       1.0  T
   7     -9.0814645 -0.528405E-04  0.275E-02    4.37       2.1  T
   8     -9.0814648 -0.287455E-06  0.111E-02    4.37       5.2  T
   9     -9.0814649 -0.839711E-07  0.718E-03    4.37       8.0  T
  10     -9.0814649 -0.476800E-07  0.216E-03    4.37      26.7  T
  11     -9.0814649 -0.158657E-08  0.538E-04    4.37     107.3  T
  12     -9.0814649 -0.250450E-09  0.443E-05    4.37    1304.7  T
     SCC iter.                  ...        0 min,  0.001 sec
     gradient                   ...        0 min,  0.000 sec
 * total energy  :    -9.0576828 Eh     change       -0.1022365E+00 Eh
   gradient norm :     0.0591817 Eh/α   predicted    -0.1779037E+00 (  74.01%)
   displ. norm   :     0.8899602 α      lambda       -0.4174707E-01
   maximum displ.:     0.7577053 α      in ANC's #2, #1, #3, ...

........................................................................
.............................. CYCLE    6 ..............................
........................................................................

 iter      E             dE          RMSdq      gap      omega  full diag
   1     -9.0324666 -0.903247E+01  0.172E+00    3.61       0.0  T
   2     -9.0328365 -0.369957E-03  0.108E+00    3.65       1.0  T
   3     -9.0329359 -0.994189E-04  0.235E-01    3.68       1.0  T
   4     -9.0329672 -0.312701E-04  0.165E-01    3.69       1.0  T
   5     -9.0329943 -0.270537E-04  0.127E-01    3.69       1.0  T
   6     -9.0330386 -0.443086E-04  0.484E-02    3.72       1.2  T
   7     -9.0330413 -0.272611E-05  0.230E-02    3.72       2.5  T
   8     -9.0330418 -0.497591E-06  0.159E-02    3.73       3.6  T
   9     -9.0330422 -0.401320E-06  0.243E-03    3.73      23.8  T
  10     -9.0330422 -0.776720E-08  0.374E-04    3.73     154.5  T
  11     -9.0330422 -0.127642E-09  0.736E-05    3.73     784.8  T
     SCC iter.                  ...        0 min,  0.001 sec
     gradient                   ...        0 min,  0.000 sec
 * total energy  :    -9.0313260 Eh     change        0.2635686E-01 Eh
   gradient norm :     0.1147901 Eh/α   predicted    -0.3740600E-01 (-241.92%)
   displ. norm   :     0.4372659 α      lambda       -0.3844696E-01
   maximum displ.:     0.3722427 α      in ANC's #2, #1, #3, ...

........................................................................
.............................. CYCLE    7 ..............................
........................................................................

 iter      E             dE          RMSdq      gap      omega  full diag
   1     -9.0691371 -0.906914E+01  0.921E-01    4.22       0.0  T
   2     -9.0691908 -0.537087E-04  0.578E-01    4.21       1.0  T
   3     -9.0692183 -0.274849E-04  0.966E-02    4.20       1.0  T
   4     -9.0692238 -0.552036E-05  0.792E-02    4.20       1.0  T
   5     -9.0692329 -0.906424E-05  0.577E-02    4.19       1.0  T
   6     -9.0692417 -0.880200E-05  0.206E-02    4.18       2.8  T
   7     -9.0692422 -0.445793E-06  0.947E-03    4.17       6.1  T
   8     -9.0692423 -0.106419E-06  0.598E-03    4.17       9.7  T
   9     -9.0692423 -0.676885E-07  0.109E-03    4.17      52.9  T
  10     -9.0692423 -0.919936E-09  0.357E-05    4.17    1615.9  T
  11     -9.0692423 -0.181188E-12  0.194E-05    4.17    2977.8  T
     SCC iter.                  ...        0 min,  0.001 sec
     gradient                   ...        0 min,  0.000 sec
 * total energy  :    -9.0608838 Eh     change       -0.2955780E-01 Eh
   gradient norm :     0.0655979 Eh/α   predicted    -0.2289903E-01 ( -22.53%)
   displ. norm   :     0.2772883 α      lambda       -0.1308350E-01
   maximum displ.:     0.2256190 α      in ANC's #2, #1, #3, ...

........................................................................
.............................. CYCLE    8 ..............................
........................................................................

 iter      E             dE          RMSdq      gap      omega  full diag
   1     -9.0886453 -0.908865E+01  0.669E-01    4.37       0.0  T
   2     -9.0886645 -0.192100E-04  0.404E-01    4.37       1.0  T
   3     -9.0886807 -0.162335E-04  0.688E-02    4.36       1.0  T
   4     -9.0886855 -0.479674E-05  0.439E-02    4.36       1.3  T
   5     -9.0886885 -0.296830E-05  0.282E-02    4.36       2.0  T
   6     -9.0886901 -0.160367E-05  0.143E-02    4.35       4.0  T
   7     -9.0886904 -0.296719E-06  0.938E-03    4.35       6.2  T
   8     -9.0886905 -0.136082E-06  0.463E-03    4.35      12.5  T
   9     -9.0886905 -0.457444E-07  0.619E-04    4.35      93.2  T
  10     -9.0886905 -0.507843E-10  0.172E-04    4.35     334.8  T
     SCC iter.                  ...        0 min,  0.001 sec
     gradient                   ...        0 min,  0.000 sec
 * total energy  :    -9.0611461 Eh     change       -0.2623245E-03 Eh
   gradient norm :     0.0823387 Eh/α   predicted    -0.7044740E-02 (2585.51%)
   displ. norm   :     0.1477940 α      lambda       -0.8847172E-02
   maximum displ.:     0.1238725 α      in ANC's #2, #1, #3, ...

........................................................................
.............................. CYCLE    9 ..............................
........................................................................

 iter      E             dE          RMSdq      gap      omega  full diag
   1     -9.0792212 -0.907922E+01  0.356E-01    4.29       0.0  T
   2     -9.0792282 -0.701602E-05  0.209E-01    4.29       1.0  T
   3     -9.0792326 -0.432126E-05  0.361E-02    4.29       1.6  T
   4     -9.0792332 -0.634246E-06  0.244E-02    4.29       2.4  T
   5     -9.0792338 -0.584584E-06  0.167E-02    4.30       3.5  T
   6     -9.0792344 -0.596663E-06  0.725E-03    4.30       8.0  T
   7     -9.0792345 -0.807353E-07  0.310E-03    4.30      18.6  T
   8     -9.0792345 -0.161722E-07  0.193E-03    4.30      29.9  T
   9     -9.0792345 -0.916260E-08  0.418E-04    4.30     138.2  T
  10     -9.0792345 -0.735412E-10  0.143E-05    4.30    4042.8  T
     SCC iter.                  ...        0 min,  0.001 sec
     gradient                   ...        0 min,  0.000 sec
 * total energy  :    -9.0646203 Eh     change       -0.3474163E-02 Eh
   gradient norm :     0.0173517 Eh/α   predicted    -0.4520210E-02 (  30.11%)
   displ. norm   :     0.0142065 α      lambda       -0.2435930E-03
   maximum displ.:     0.0131948 α      in ANC's #3, #1, #2, ...

........................................................................
.............................. CYCLE   10 ..............................
........................................................................

 iter      E             dE          RMSdq      gap      omega  full diag
   1     -9.0807171 -0.908072E+01  0.635E-02    4.33       0.0  T
   2     -9.0807174 -0.269412E-06  0.370E-02    4.33       1.6  T
   3     -9.0807176 -0.155271E-06  0.799E-03    4.33       7.2  T
   4     -9.0807176 -0.302894E-07  0.531E-03    4.33      10.9  T
   5     -9.0807176 -0.325661E-07  0.337E-03    4.33      17.1  T
   6     -9.0807177 -0.273469E-07  0.151E-03    4.33      38.3  T
   7     -9.0807177 -0.484958E-08  0.490E-04    4.33     117.9  T
   8     -9.0807177 -0.281270E-09  0.267E-04    4.33     216.2  T
     SCC iter.                  ...        0 min,  0.001 sec
     gradient                   ...        0 min,  0.000 sec
 * total energy  :    -9.0647932 Eh     change       -0.1729474E-03 Eh
   gradient norm :     0.0075312 Eh/α   predicted    -0.1218223E-03 ( -29.56%)
   displ. norm   :     0.0182257 α      lambda       -0.1162954E-03
   maximum displ.:     0.0144382 α      in ANC's #3, #2, #1, ...

........................................................................
.............................. CYCLE   11 ..............................
........................................................................

 iter      E             dE          RMSdq      gap      omega  full diag
   1     -9.0816424 -0.908164E+01  0.690E-02    4.35       0.0  T
   2     -9.0816427 -0.357335E-06  0.399E-02    4.35       1.4  T
   3     -9.0816429 -0.148467E-06  0.893E-03    4.35       6.5  T
   4     -9.0816429 -0.249618E-07  0.506E-03    4.35      11.4  T
   5     -9.0816429 -0.244788E-07  0.283E-03    4.35      20.4  T
   6     -9.0816429 -0.195910E-07  0.141E-03    4.35      41.0  T
   7     -9.0816429 -0.502342E-08  0.298E-04    4.35     193.5  T
   8     -9.0816429 -0.541718E-10  0.224E-04    4.35     257.4  T
     SCC iter.                  ...        0 min,  0.001 sec
     gradient                   ...        0 min,  0.000 sec
 * total energy  :    -9.0648619 Eh     change       -0.6872297E-04 Eh
   gradient norm :     0.0020834 Eh/α   predicted    -0.5816788E-04 ( -15.36%)
   displ. norm   :     0.0107089 α      lambda       -0.1730871E-04
   maximum displ.:     0.0091909 α      in ANC's #2, #3, #1, ...

........................................................................
.............................. CYCLE   12 ..............................
........................................................................

 iter      E             dE          RMSdq      gap      omega  full diag
   1     -9.0816147 -0.908161E+01  0.265E-02    4.36       0.0  T
   2     -9.0816147 -0.513741E-07  0.155E-02    4.36       3.7  T
   3     -9.0816147 -0.149690E-07  0.312E-03    4.36      18.5  T
   4     -9.0816147 -0.142188E-08  0.143E-03    4.36      40.3  T
   5     -9.0816147 -0.954353E-09  0.560E-04    4.36     103.0  T
   6     -9.0816147 -0.742656E-09  0.303E-04    4.36     190.7  T
     SCC iter.                  ...        0 min,  0.001 sec
     gradient                   ...        0 min,  0.000 sec
 * total energy  :    -9.0648728 Eh     change       -0.1088329E-04 Eh
   gradient norm :     0.0008815 Eh/α   predicted    -0.8654626E-05 ( -20.48%)
   displ. norm   :     0.0058976 α      lambda       -0.2110022E-05
   maximum displ.:     0.0052656 α      in ANC's #2, #1, #3, ...

........................................................................
.............................. CYCLE   13 ..............................
........................................................................

 iter      E             dE          RMSdq      gap      omega  full diag
   1     -9.0814675 -0.908147E+01  0.119E-02    4.36       0.0  T
   2     -9.0814675 -0.104673E-07  0.708E-03    4.36       8.2  T
   3     -9.0814675 -0.235933E-08  0.124E-03    4.36      46.5  T
   4     -9.0814675 -0.150374E-09  0.492E-04    4.36     117.3  T
   5     -9.0814675 -0.516138E-10  0.141E-04    4.36     408.6  T
     SCC iter.                  ...        0 min,  0.000 sec
     gradient                   ...        0 min,  0.000 sec
 * total energy  :    -9.0648737 Eh     change       -0.8509553E-06 Eh
   gradient norm :     0.0003825 Eh/α   predicted    -0.1054311E-05 (  23.90%)
   displ. norm   :     0.0019616 α      lambda       -0.3171250E-06
   maximum displ.:     0.0017562 α      in ANC's #2, #1, #3, ...

   *** GEOMETRY OPTIMIZATION CONVERGED AFTER 13 ITERATIONS ***

------------------------------------------------------------------------
 total energy gain   :        -0.0605155 Eh      -37.9741 kcal/mol
 total RMSD          :         0.8507597 a0        0.4502 Å
 total power (kW/mol):       -12.2218075 (step)-8905.0002 (real)
------------------------------------------------------------------------

 ANCopt (total)                0 d,  0 h,  0 min,  0.018 sec
 optimizer setup                ...        0 min,  0.000 sec (  0.531%)
 model hessian                  ...        0 min,  0.000 sec (  0.482%)
 ANC generation                 ...        0 min,  0.000 sec (  0.359%)
 coordinate transformation      ...        0 min,  0.000 sec (  0.537%)
 single point calculation       ...        0 min,  0.016 sec ( 89.858%)
 optimization log               ...        0 min,  0.000 sec (  2.099%)
 hessian update                 ...        0 min,  0.000 sec (  0.722%)
 rational function              ...        0 min,  0.000 sec (  1.952%)

================
 final structure:
================
3
 xtb: 6.6.1 (8d0f1dd)
O            2.73499417219927       -2.19585699027365        2.90223556553824
Cl           3.62424681521318       -1.32786964673946        4.07096029789662
H            2.15608280221705       -1.55723340469495        2.46725889162297
 
 Bond Distances (Angstroems)
 ---------------------------
O1-Cl2=1.7059        O1-H3=0.9655         Cl2-O1=1.7059        H3-O1=0.9655         
 O  H  Rav=0.9655 sigma=0.0000  Rmin=0.9655  Rmax=0.9655     1
 Cl O  Rav=1.7059 sigma=0.0000  Rmin=1.7059  Rmax=1.7059     1
 
 selected bond angles (degree)
 --------------------
H3-O1-Cl2=106.54               
 
 selected dihedral angles (degree)
 ---------------------------------

 
 CMA Distance (Angstroems)
 ---------------------------
R(CMA):  1.7231
           -------------------------------------------------
          |                Final Singlepoint                |
           -------------------------------------------------

          ...................................................
          :                      SETUP                      :
          :.................................................:
          :  # basis functions                  15          :
          :  # atomic orbitals                  14          :
          :  # shells                            6          :
          :  # electrons                        14          :
          :  max. iterations                   800          :
          :  Hamiltonian                  GFN2-xTB          :
          :  restarted?                      false          :
          :  GBSA solvation                  false          :
          :  PC potential                    false          :
          :  electronic temp.         6000.0000000     K    :
          :  accuracy                    1.0000000          :
          :  -> integral cutoff          0.2500000E+02      :
          :  -> integral neglect         0.1000000E-07      :
          :  -> SCF convergence          0.1000000E-05 Eh   :
          :  -> wf. convergence          0.1000000E-03 e    :
          :  Broyden damping             0.4000000          :
          ...................................................

 iter      E             dE          RMSdq      gap      omega  full diag
   1     -9.0814675 -0.908147E+01  0.293E-05    4.36       0.0  T
   2     -9.0814675 -0.282441E-12  0.231E-05    4.36    2499.5  T
   3     -9.0814675 -0.595080E-12  0.138E-05    4.36    4178.1  T

   *** convergence criteria satisfied after 3 iterations ***

         #    Occupation            Energy/Eh            Energy/eV
      -------------------------------------------------------------
         1        2.0000           -1.0751676             -29.2568
         2        2.0000           -0.7091730             -19.2976
         3        2.0000           -0.5984551             -16.2848
         4        2.0000           -0.5548220             -15.0975
         5        1.9998           -0.5215304             -14.1916
         6        1.9896           -0.4477326             -12.1834
         7        1.9758           -0.4316189             -11.7449 (HOMO)
         8        0.0349           -0.2713729              -7.3844 (LUMO)
         9                         -0.0110953              -0.3019
        10                         -0.0108387              -0.2949
        11                         -0.0087284              -0.2375
        12                         -0.0006206              -0.0169
       ...                                ...                  ...
        14                          0.1352558               3.6805
      -------------------------------------------------------------
                  HL-Gap            0.1602460 Eh            4.3605 eV
             Fermi-level           -0.3479679 Eh           -9.4687 eV

 SCC (total)                   0 d,  0 h,  0 min,  0.001 sec
 SCC setup                      ...        0 min,  0.000 sec (  6.877%)
 Dispersion                     ...        0 min,  0.000 sec (  1.931%)
 classical contributions        ...        0 min,  0.000 sec (  1.303%)
 integral evaluation            ...        0 min,  0.000 sec ( 17.206%)
 iterations                     ...        0 min,  0.000 sec ( 40.396%)
 molecular gradient             ...        0 min,  0.000 sec ( 22.370%)
 printout                       ...        0 min,  0.000 sec (  5.574%)

         :::::::::::::::::::::::::::::::::::::::::::::::::::::
         ::                     SUMMARY                     ::
         :::::::::::::::::::::::::::::::::::::::::::::::::::::
         :: total energy              -9.064873672416 Eh    ::
         :: gradient norm              0.000382432263 Eh/a0 ::
         :: HOMO-LUMO gap              4.360515380636 eV    ::
         ::.................................................::
         :: SCC energy                -9.081467494698 Eh    ::
         :: -> isotropic ES            0.018167667100 Eh    ::
         :: -> anisotropic ES         -0.003253346023 Eh    ::
         :: -> anisotropic XC         -0.001717658163 Eh    ::
         :: -> dispersion             -0.000594282908 Eh    ::
         :: repulsion energy           0.016593821758 Eh    ::
         :: add. restraining           0.000000000000 Eh    ::
         :: total charge               0.000000001948 e     ::
         :::::::::::::::::::::::::::::::::::::::::::::::::::::

           -------------------------------------------------
          |                Property Printout                |
           -------------------------------------------------

    * Orbital Energies and Occupations

         #    Occupation            Energy/Eh            Energy/eV
      -------------------------------------------------------------
         1        2.0000           -1.0751676             -29.2568
         2        2.0000           -0.7091730             -19.2976
         3        2.0000           -0.5984551             -16.2848
         4        2.0000           -0.5548220             -15.0975
         5        1.9998           -0.5215304             -14.1916
         6        1.9896           -0.4477326             -12.1834
         7        1.9758           -0.4316189             -11.7449 (HOMO)
         8        0.0349           -0.2713729              -7.3844 (LUMO)
         9                         -0.0110953              -0.3019
        10                         -0.0108387              -0.2949
        11                         -0.0087284              -0.2375
        12                         -0.0006206              -0.0169
        13                          0.1040723               2.8320
        14                          0.1352558               3.6805
      -------------------------------------------------------------
                  HL-Gap            0.1602460 Eh            4.3605 eV
             Fermi-level           -0.3479679 Eh           -9.4687 eV

     #   Z          covCN         q      C6AA      α(0)
     1   8 O        1.733    -0.376    20.366     6.093
     2  17 Cl       0.931     0.052    97.644    15.117
     3   1 H        0.808     0.324     0.652     1.268

 Mol. C6AA /au·bohr⁶  :        229.923529
 Mol. C8AA /au·bohr⁸  :       7520.984616
 Mol. α(0) /au        :         22.479130


Wiberg/Mayer (AO) data.
largest (>0.10) Wiberg bond orders for each atom

 ---------------------------------------------------------------------------
     #   Z sym  total        # sym  WBO       # sym  WBO       # sym  WBO
 ---------------------------------------------------------------------------
     1   8 O    1.908 --     2 Cl   1.017     3 H    0.891
     2  17 Cl   1.019 --     1 O    1.017
     3   1 H    0.894 --     1 O    0.891
 ---------------------------------------------------------------------------

Topologies differ in total number of bonds
Writing topology from bond orders to xtbtopo.mol

molecular dipole:
                 x           y           z       tot (Debye)
 q only:       -0.267       0.476      -0.152
   full:       -0.271       0.534      -0.141       1.563
molecular quadrupole (traceless):
                xx          xy          yy          xz          yz          zz
 q only:        0.038       4.930      -1.631      -2.649       4.663       1.593
  q+dip:        0.643       4.756      -2.692      -2.510       4.181       2.049
   full:        0.476       5.185      -2.719      -1.763       4.833       2.242

           -------------------------------------------------
          |                Geometry Summary                 |
           -------------------------------------------------

      molecular mass/u    :       52.4602833
   center of mass at/Å    :        3.3248333      -1.5969966       3.6837089
  moments of inertia/u·Å² :        0.7940863E+00   0.3421375E+02   0.3500784E+02
rotational constants/cm⁻¹ :        0.2122897E+02   0.4927151E+00   0.4815388E+00

 * 1 selected distances

     #   Z          #   Z                                           value/Å
     1   8 O        3   1 H                                       0.9654964 (max)

 * 1 distinct bonds (by element types)

   Z      Z             #   av. dist./Å        max./Å        min./Å
   1 H    8 O           1     0.9654964     0.9654964     0.9654964


optimized geometry written to: xtbopt.xyz


           -------------------------------------------------
          | TOTAL ENERGY               -9.064873672416 Eh   |
          | GRADIENT NORM               0.000382432263 Eh/α |
          | HOMO-LUMO GAP               4.360515380636 eV   |
           -------------------------------------------------

------------------------------------------------------------------------
 * finished run on 2025/04/07 at 09:40:48.705     
------------------------------------------------------------------------
 total:
 * wall-time:     0 d,  0 h,  0 min,  0.099 sec
 *  cpu-time:     0 d,  0 h,  0 min,  0.404 sec
 * ratio c/w:     4.068 speedup
 SCF:
 * wall-time:     0 d,  0 h,  0 min,  0.025 sec
 *  cpu-time:     0 d,  0 h,  0 min,  0.182 sec
 * ratio c/w:     7.375 speedup
 ANC optimizer:
 * wall-time:     0 d,  0 h,  0 min,  0.020 sec
 *  cpu-time:     0 d,  0 h,  0 min,  0.160 sec
 * ratio c/w:     7.960 speedup

