      -----------------------------------------------------------      
     |                   =====================                   |     
     |                           x T B                           |     
     |                   =====================                   |     
     |                         S. Grimme                         |     
     |          Mulliken Center for Theoretical Chemistry        |     
     |                    University of Bonn                     |     
      -----------------------------------------------------------      

   * xtb version 6.6.1 (8d0f1dd) compiled by 'stahn@M-Bot' on 2023-08-01

   xtb is free software: you can redistribute it and/or modify it under
   the terms of the GNU Lesser General Public License as published by
   the Free Software Foundation, either version 3 of the License, or
   (at your option) any later version.
   
   xtb is distributed in the hope that it will be useful,
   but WITHOUT ANY WARRANTY; without even the implied warranty of
   MERCHANTABILITY or FITNESS FOR A PARTICULAR PURPOSE.  See the
   GNU Lesser General Public License for more details.
   
   Cite this work as:
   * C. Bannwarth, E. Caldeweyher, S. Ehlert, A. Hansen, P. Pracht,
     J. Seibert, S. Spicher, S. Grimme, WIREs Comput. Mol. Sci., 2020, 11,
     e01493. DOI: 10.1002/wcms.1493
   
   for GFN2-xTB:
   * C. Bannwarth, S. Ehlert and S. Grimme., J. Chem. Theory Comput., 2019,
     15, 1652-1671. DOI: 10.1021/acs.jctc.8b01176
   for GFN1-xTB:
   * S. Grimme, C. Bannwarth, P. Shushkov, J. Chem. Theory Comput., 2017,
     13, 1989-2009. DOI: 10.1021/acs.jctc.7b00118
   for GFN0-xTB:
   * P. Pracht, E. Caldeweyher, S. Ehlert, S. Grimme, ChemRxiv, 2019, preprint.
     DOI: 10.26434/chemrxiv.8326202.v1
   for GFN-FF:
   * S. Spicher and S. Grimme, Angew. Chem. Int. Ed., 2020, 59, 15665-15673.
     DOI: 10.1002/anie.202004239
   
   for ALPB and GBSA implicit solvation:
   * S. Ehlert, M. Stahn, S. Spicher, S. Grimme, J. Chem. Theory Comput.,
     2021, 17, 4250-4261. DOI: 10.1021/acs.jctc.1c00471
   
   for DFT-D4:
   * E. Caldeweyher, C. Bannwarth and S. Grimme, J. Chem. Phys., 2017,
     147, 034112. DOI: 10.1063/1.4993215
   * E. Caldeweyher, S. Ehlert, A. Hansen, H. Neugebauer, S. Spicher,
     C. Bannwarth and S. Grimme, J. Chem. Phys., 2019, 150, 154122.
     DOI: 10.1063/1.5090222
   * E. Caldeweyher, J.-M. Mewes, S. Ehlert and S. Grimme, Phys. Chem. Chem. Phys.
     2020, 22, 8499-8512. DOI: 10.1039/D0CP00502A
   
   for sTDA-xTB:
   * S. Grimme and C. Bannwarth, J. Chem. Phys., 2016, 145, 054103.
     DOI: 10.1063/1.4959605
   
   in the mass-spec context:
   * V. Asgeirsson, C. Bauer and S. Grimme, Chem. Sci., 2017, 8, 4879.
     DOI: 10.1039/c7sc00601b
   * J. Koopman and S. Grimme, ACS Omega 2019, 4, 12, 15120-15133.
     DOI: 10.1021/acsomega.9b02011
   
   for metadynamics refer to:
   * S. Grimme, J. Chem. Theory Comput., 2019, 155, 2847-2862
     DOI: 10.1021/acs.jctc.9b00143
   
   for SPH calculations refer to:
   * S. Spicher and S. Grimme, J. Chem. Theory Comput., 2021, 17, 1701-1714
     DOI: 10.1021/acs.jctc.0c01306
   
   with help from (in alphabetical order)
   P. Atkinson, C. Bannwarth, F. Bohle, G. Brandenburg, E. Caldeweyher
   M. Checinski, S. Dohm, S. Ehlert, S. Ehrlich, I. Gerasimov, C. Hölzer
   A. Katbashev, J. Koopman, C. Lavigne, S. Lehtola, F. März, M. Müller,
   F. Musil, H. Neugebauer, J. Pisarek, C. Plett, P. Pracht, F. Pultar,
   J. Seibert, P. Shushkov, S. Spicher, M. Stahn, M. Steiner, T. Strunk,
   J. Stückrath, T. Rose, and J. Unsleber
   
 * started run on 2025/04/07 at 09:40:48.714     

           -------------------------------------------------
          |                Calculation Setup                |
           -------------------------------------------------

          program call               : xtb 239.xyz --input 239.inp --opt
          hostname                   : serv11
          coordinate file            : 239.xyz
          omp threads                :                     8

   ID    Z sym.   atoms
    1    8 O      1
    2   17 Cl     2
    3    1 H      3

molecular fragmentation (1/2 indicates fragments):
121
# atoms in fragment 1/2:     2     1
 fragment masses (1/2) :       17.01       35.45
CMA distance (Bohr)    :   7.795
constraining FC (au)   :  0.0500

           -------------------------------------------------
          |                 G F N 2 - x T B                 |
           -------------------------------------------------

        Reference                      10.1021/acs.jctc.8b01176
      * Hamiltonian:
        H0-scaling (s, p, d)           1.850000    2.230000    2.230000
        zeta-weighting                 0.500000
      * Dispersion:
        s8                             2.700000
        a1                             0.520000
        a2                             5.000000
        s9                             5.000000
      * Repulsion:
        kExp                           1.500000    1.000000
        rExp                           1.000000
      * Coulomb:
        alpha                          2.000000
        third order                    shell-resolved
        anisotropic                    true
        a3                             3.000000
        a5                             4.000000
        cn-shift                       1.200000
        cn-exp                         4.000000
        max-rad                        5.000000

q/qsh data taken from xtbrestart
CAMM data taken from xtbrestart

          ...................................................
          :                      SETUP                      :
          :.................................................:
          :  # basis functions                  15          :
          :  # atomic orbitals                  14          :
          :  # shells                            6          :
          :  # electrons                        14          :
          :  max. iterations                   800          :
          :  Hamiltonian                  GFN2-xTB          :
          :  restarted?                       true          :
          :  GBSA solvation                  false          :
          :  PC potential                    false          :
          :  electronic temp.         6000.0000000     K    :
          :  accuracy                    1.0000000          :
          :  -> integral cutoff          0.2500000E+02      :
          :  -> integral neglect         0.1000000E-07      :
          :  -> SCF convergence          0.1000000E-05 Eh   :
          :  -> wf. convergence          0.1000000E-03 e    :
          :  Broyden damping             0.4000000          :
          ...................................................

 iter      E             dE          RMSdq      gap      omega  full diag
   1     -9.0106386 -0.901064E+01  0.639E+00    0.00       0.0  T
   2     -8.9179994  0.926392E-01  0.637E+00    0.03       1.0  T
   3     -8.7802301  0.137769E+00  0.738E+00    0.00       1.0  T
   4     -9.0034629 -0.223233E+00  0.166E+00    0.02       1.0  T
   5     -8.9778472  0.256157E-01  0.298E+00    0.00       1.0  T
   6     -9.0158429 -0.379957E-01  0.254E-01    0.00       1.0  T
   7     -9.0160737 -0.230819E-03  0.102E-01    0.00       1.0  T
   8     -9.0160309  0.428094E-04  0.126E-01    0.00       1.0  T
   9     -9.0160864 -0.554998E-04  0.596E-02    0.00       1.0  T
  10     -9.0160998 -0.133451E-04  0.212E-02    0.00       2.7  T
  11     -9.0161017 -0.197747E-05  0.214E-03    0.00      26.9  T
  12     -9.0161017 -0.398551E-08  0.187E-03    0.00      30.9  T
  13     -9.0161017 -0.153337E-07  0.623E-05    0.00     926.2  T
  14     -9.0161017 -0.163851E-10  0.144E-05    0.00    4012.5  T

   *** convergence criteria satisfied after 14 iterations ***

         #    Occupation            Energy/Eh            Energy/eV
      -------------------------------------------------------------
         1        2.0000           -1.0811526             -29.4197
         2        2.0000           -0.6795282             -18.4909
         3        1.9941           -0.5578081             -15.1787
         4        1.6447           -0.4763060             -12.9609
         5        1.6445           -0.4762960             -12.9607
         6        1.6330           -0.4755545             -12.9405
         7        1.5422           -0.4702693             -12.7967 (HOMO)
         8        1.5415           -0.4702330             -12.7957 (LUMO)
         9                         -0.0189092              -0.5145
        10                         -0.0189092              -0.5145
        11                         -0.0184638              -0.5024
        12                         -0.0184583              -0.5023
       ...                                ...                  ...
        14                          0.0928433               2.5264
      -------------------------------------------------------------
                  HL-Gap            0.0000363 Eh            0.0010 eV
             Fermi-level           -0.4471916 Eh          -12.1687 eV

 SCC (total)                   0 d,  0 h,  0 min,  0.034 sec
 SCC setup                      ...        0 min,  0.000 sec (  0.478%)
 Dispersion                     ...        0 min,  0.000 sec (  0.154%)
 classical contributions        ...        0 min,  0.000 sec (  0.175%)
 integral evaluation            ...        0 min,  0.030 sec ( 89.231%)
 iterations                     ...        0 min,  0.003 sec (  8.709%)
 molecular gradient             ...        0 min,  0.000 sec (  0.901%)
 printout                       ...        0 min,  0.000 sec (  0.201%)

         :::::::::::::::::::::::::::::::::::::::::::::::::::::
         ::                     SUMMARY                     ::
         :::::::::::::::::::::::::::::::::::::::::::::::::::::
         :: total energy              -9.003731179886 Eh    ::
         :: gradient norm              0.034067180823 Eh/a0 ::
         :: HOMO-LUMO gap              0.000987585244 eV    ::
         ::.................................................::
         :: SCC energy                -9.016101748835 Eh    ::
         :: -> isotropic ES            0.019642334265 Eh    ::
         :: -> anisotropic ES         -0.001666917408 Eh    ::
         :: -> anisotropic XC         -0.000479811278 Eh    ::
         :: -> dispersion             -0.000304420145 Eh    ::
         :: repulsion energy           0.012370649507 Eh    ::
         :: add. restraining           0.000000000000 Eh    ::
         :: total charge               0.000000000262 e     ::
         :::::::::::::::::::::::::::::::::::::::::::::::::::::

      ----------------------------------------------------------- 
     |                   =====================                   |
     |                        A N C O P T                        |
     |                   =====================                   |
     |               Approximate Normal Coordinate               |
     |                Rational Function Optimizer                |
      ----------------------------------------------------------- 

          ...................................................
          :                      SETUP                      :
          :.................................................:
          :   optimization level            normal          :
          :   max. optcycles                   200          :
          :   ANC micro-cycles                  20          :
          :   degrees of freedom                 3          :
          :.................................................:
          :   RF solver                   davidson          :
          :   write xtbopt.log                true          :
          :   linear?                        false          :
          :   energy convergence         0.5000000E-05 Eh   :
          :   grad. convergence          0.1000000E-02 Eh/α :
          :   maxmium RF displ.          1.0000000          :
          :   Hlow (freq-cutoff)         0.1000000E-01      :
          :   Hmax (freq-cutoff)         5.0000000          :
          :   S6 in model hess.         20.0000000          :
          ...................................................

generating ANC from model Hessian ...
Using Lindh-Hessian (1995)
 Shifting diagonal of input Hessian by   1.000283396250357E-002
 Lowest  eigenvalues of input Hessian
    0.010000    0.000000    0.000000    0.000000    0.000000    0.000000
    0.000000    0.010226    1.149791
 Highest eigenvalues
    0.000000    0.000000    0.000000    0.000000    0.010226    1.149791
 

........................................................................
.............................. CYCLE    1 ..............................
........................................................................

 iter      E             dE          RMSdq      gap      omega  full diag
   1     -9.0161017 -0.901610E+01  0.146E-05    0.00       0.0  T
   2     -9.0161017  0.231548E-10  0.734E-05    0.00     786.1  T
   3     -9.0161017 -0.240750E-10  0.126E-06    0.00   45912.7  T
     SCC iter.                  ...        0 min,  0.001 sec
     gradient                   ...        0 min,  0.000 sec
 * total energy  :    -9.0037312 Eh     change       -0.8011369E-12 Eh
   gradient norm :     0.0340672 Eh/α   predicted     0.0000000E+00 (-100.00%)
   displ. norm   :     0.0690637 α      lambda       -0.1051768E-02
   maximum displ.:     0.0558666 α      in ANC's #2, #3, #1, ...

........................................................................
.............................. CYCLE    2 ..............................
........................................................................

 iter      E             dE          RMSdq      gap      omega  full diag
   1     -9.0193934 -0.901939E+01  0.294E-01    0.00       0.0  T
   2     -9.0136193  0.577410E-02  0.115E+00    0.00       1.0  T
   3     -9.0194678 -0.584845E-02  0.222E-01    0.00       1.0  T
   4     -9.0196290 -0.161270E-03  0.160E-02    0.00       3.6  T
   5     -9.0196295 -0.485014E-06  0.628E-03    0.00       9.2  T
   6     -9.0196295 -0.154892E-07  0.260E-03    0.00      22.2  T
   7     -9.0196296 -0.901837E-08  0.107E-03    0.00      53.9  T
   8     -9.0196296 -0.944805E-09  0.179E-04    0.00     322.8  T
   9     -9.0196296 -0.118492E-09  0.327E-05    0.00    1765.5  T
     SCC iter.                  ...        0 min,  0.001 sec
     gradient                   ...        0 min,  0.000 sec
 * total energy  :    -9.0044370 Eh     change       -0.7058164E-03 Eh
   gradient norm :     0.0109306 Eh/α   predicted    -0.5283928E-03 ( -25.14%)
   displ. norm   :     0.0824737 α      lambda       -0.2116338E-03
   maximum displ.:     0.0809942 α      in ANC's #2, #3, #1, ...

........................................................................
.............................. CYCLE    3 ..............................
........................................................................

 iter      E             dE          RMSdq      gap      omega  full diag
   1     -9.0212543 -0.902125E+01  0.200E-01    0.00       0.0  T
   2     -9.0180309  0.322333E-02  0.862E-01    0.00       1.0  T
   3     -9.0213458 -0.331487E-02  0.111E-01    0.00       1.0  T
   4     -9.0213855 -0.396901E-04  0.159E-02    0.00       3.6  T
   5     -9.0213862 -0.689868E-06  0.421E-03    0.00      13.7  T
   6     -9.0213862 -0.920188E-08  0.197E-03    0.00      29.3  T
   7     -9.0213862 -0.466502E-08  0.731E-04    0.00      79.0  T
   8     -9.0213862 -0.536300E-09  0.115E-04    0.00     502.9  T
     SCC iter.                  ...        0 min,  0.001 sec
     gradient                   ...        0 min,  0.000 sec
 * total energy  :    -9.0045543 Eh     change       -0.1173283E-03 Eh
   gradient norm :     0.0023894 Eh/α   predicted    -0.1065363E-03 (  -9.20%)
   displ. norm   :     0.0950143 α      lambda       -0.6979387E-04
   maximum displ.:     0.0855502 α      in ANC's #2, #1, #3, ...

........................................................................
.............................. CYCLE    4 ..............................
........................................................................

 iter      E             dE          RMSdq      gap      omega  full diag
   1     -9.0212968 -0.902130E+01  0.163E-01    0.00       0.0  T
   2     -9.0199995  0.129728E-02  0.560E-01    0.00       1.0  T
   3     -9.0213446 -0.134506E-02  0.788E-02    0.00       1.0  T
   4     -9.0213506 -0.595654E-05  0.646E-03    0.00       8.9  T
   5     -9.0213506 -0.181746E-07  0.485E-03    0.00      11.9  T
   6     -9.0213506 -0.246296E-07  0.157E-03    0.00      36.8  T
   7     -9.0213506 -0.189041E-08  0.409E-04    0.00     141.0  T
   8     -9.0213506 -0.148788E-09  0.504E-05    0.00    1146.2  T
     SCC iter.                  ...        0 min,  0.001 sec
     gradient                   ...        0 min,  0.000 sec
 * total energy  :    -9.0046271 Eh     change       -0.7278680E-04 Eh
   gradient norm :     0.0015734 Eh/α   predicted    -0.3521070E-04 ( -51.62%)
   displ. norm   :     0.1568201 α      lambda       -0.8052055E-04
   maximum displ.:     0.1430087 α      in ANC's #2, #1, #3, ...

........................................................................
.............................. CYCLE    5 ..............................
........................................................................

 iter      E             dE          RMSdq      gap      omega  full diag
   1     -9.0207080 -0.902071E+01  0.249E-01    0.00       0.0  T
   2     -9.0179895  0.271850E-02  0.819E-01    0.00       1.0  T
   3     -9.0208136 -0.282409E-02  0.120E-01    0.00       1.0  T
   4     -9.0208232 -0.956215E-05  0.109E-02    0.00       5.3  T
   5     -9.0208232 -0.562992E-07  0.814E-03    0.00       7.1  T
   6     -9.0208233 -0.754315E-07  0.293E-03    0.00      19.7  T
   7     -9.0208233 -0.821897E-08  0.884E-04    0.00      65.3  T
   8     -9.0208233 -0.527196E-09  0.100E-04    0.00     577.3  T
     SCC iter.                  ...        0 min,  0.001 sec
     gradient                   ...        0 min,  0.000 sec
 * total energy  :    -9.0047387 Eh     change       -0.1116054E-03 Eh
   gradient norm :     0.0038606 Eh/α   predicted    -0.4070003E-04 ( -63.53%)
   displ. norm   :     0.1085314 α      lambda       -0.8087633E-04
   maximum displ.:     0.1060300 α      in ANC's #2, #1, #3, ...

........................................................................
.............................. CYCLE    6 ..............................
........................................................................

 iter      E             dE          RMSdq      gap      omega  full diag
   1     -9.0206584 -0.902066E+01  0.166E-01    0.00       0.0  T
   2     -9.0187890  0.186934E-02  0.673E-01    0.00       1.0  T
   3     -9.0207358 -0.194674E-02  0.599E-02    0.00       1.0  T
   4     -9.0207381 -0.235979E-05  0.698E-03    0.00       8.3  T
   5     -9.0207382 -0.200553E-07  0.508E-03    0.00      11.4  T
   6     -9.0207382 -0.284623E-07  0.154E-03    0.00      37.6  T
   7     -9.0207382 -0.183527E-08  0.388E-04    0.00     148.6  T
   8     -9.0207382 -0.105306E-09  0.560E-05    0.00    1031.3  T
     SCC iter.                  ...        0 min,  0.001 sec
     gradient                   ...        0 min,  0.000 sec
 * total energy  :    -9.0048166 Eh     change       -0.7788452E-04 Eh
   gradient norm :     0.0051840 Eh/α   predicted    -0.4091557E-04 ( -47.47%)
   displ. norm   :     0.1773292 α      lambda       -0.1456726E-03
   maximum displ.:     0.1764455 α      in ANC's #2, #1, #3, ...

........................................................................
.............................. CYCLE    7 ..............................
........................................................................

 iter      E             dE          RMSdq      gap      omega  full diag
   1     -9.0206403 -0.902064E+01  0.275E-01    0.00       0.0  T
   2     -9.0146820  0.595836E-02  0.121E+00    0.00       1.0  T
   3     -9.0208966 -0.621467E-02  0.764E-02    0.00       1.0  T
   4     -9.0209020 -0.537947E-05  0.122E-02    0.00       4.7  T
   5     -9.0209021 -0.681384E-07  0.807E-03    0.00       7.2  T
   6     -9.0209021 -0.715124E-07  0.206E-03    0.00      28.0  T
   7     -9.0209021 -0.252495E-08  0.430E-04    0.00     134.2  T
   8     -9.0209021 -0.767706E-10  0.127E-04    0.00     455.1  T
     SCC iter.                  ...        0 min,  0.001 sec
     gradient                   ...        0 min,  0.000 sec
 * total energy  :    -9.0049607 Eh     change       -0.1441384E-03 Eh
   gradient norm :     0.0050843 Eh/α   predicted    -0.7512630E-04 ( -47.88%)
   displ. norm   :     0.3798507 α      lambda       -0.3299168E-03
   maximum displ.:     0.3788879 α      in ANC's #2, #3, #1, ...

........................................................................
.............................. CYCLE    8 ..............................
........................................................................

 iter      E             dE          RMSdq      gap      omega  full diag
   1     -9.0197545 -0.901975E+01  0.616E-01    0.00       0.0  T
   2     -8.9910383  0.287162E-01  0.271E+00    0.00       1.0  T
   3     -9.0211269 -0.300886E-01  0.138E-01    0.00       1.0  T
   4     -9.0211412 -0.142942E-04  0.294E-02    0.00       2.0  T
   5     -9.0211416 -0.440157E-06  0.188E-02    0.00       3.1  T
   6     -9.0211420 -0.396264E-06  0.486E-03    0.00      11.9  T
   7     -9.0211420 -0.146102E-07  0.954E-04    0.00      60.5  T
   8     -9.0211420 -0.743000E-09  0.355E-04    0.00     162.5  T
     SCC iter.                  ...        0 min,  0.001 sec
     gradient                   ...        0 min,  0.000 sec
 * total energy  :    -9.0052936 Eh     change       -0.3328422E-03 Eh
   gradient norm :     0.0059693 Eh/α   predicted    -0.1887600E-03 ( -43.29%)
   displ. norm   :     0.3683244 α      lambda       -0.3400859E-03
   maximum displ.:     0.3674128 α      in ANC's #2, #3, #1, ...

........................................................................
.............................. CYCLE    9 ..............................
........................................................................

 iter      E             dE          RMSdq      gap      omega  full diag
   1     -9.0193429 -0.901934E+01  0.673E-01    0.01       0.0  T
   2     -8.9867756  0.325673E-01  0.294E+00    0.00       1.0  T
   3     -9.0210284 -0.342529E-01  0.122E-01    0.00       1.0  T
   4     -9.0210363 -0.789374E-05  0.330E-02    0.00       1.7  T
   5     -9.0210368 -0.491653E-06  0.209E-02    0.00       2.8  T
   6     -9.0210373 -0.498488E-06  0.595E-03    0.00       9.7  T
   7     -9.0210373 -0.210623E-07  0.962E-04    0.00      60.0  T
   8     -9.0210373 -0.945661E-09  0.367E-04    0.00     157.4  T
     SCC iter.                  ...        0 min,  0.001 sec
     gradient                   ...        0 min,  0.000 sec
 * total energy  :    -9.0056241 Eh     change       -0.3305505E-03 Eh
   gradient norm :     0.0096248 Eh/α   predicted    -0.1931138E-03 ( -41.58%)
   displ. norm   :     0.9064647 α      lambda       -0.9360147E-03
   maximum displ.:     0.9015523 α      in ANC's #2, #1, #3, ...

........................................................................
.............................. CYCLE   10 ..............................
........................................................................

 iter      E             dE          RMSdq      gap      omega  full diag
   1     -9.0038655 -0.900387E+01  0.227E+00    0.19       0.0  T
   2     -8.8328862  0.170979E+00  0.744E+00    0.00       1.0  T
   3     -9.0205752 -0.187689E+00  0.459E-01    0.08       1.0  T
   4     -9.0205643  0.109013E-04  0.213E-01    0.08       1.0  T
   5     -9.0207022 -0.137975E-03  0.725E-02    0.07       1.0  T
   6     -9.0206935  0.875659E-05  0.657E-02    0.07       1.0  T
   7     -9.0206918  0.163814E-05  0.664E-02    0.06       1.0  T
   8     -9.0207079 -0.160480E-04  0.181E-03    0.07      31.9  T
   9     -9.0207079  0.784456E-08  0.188E-03    0.07      30.7  T
  10     -9.0207079  0.274524E-08  0.203E-03    0.07      28.4  T
  11     -9.0207079 -0.131186E-07  0.747E-04    0.07      77.3  T
  12     -9.0207079 -0.202428E-08  0.669E-05    0.07     863.4  T
     SCC iter.                  ...        0 min,  0.001 sec
     gradient                   ...        0 min,  0.000 sec
 * total energy  :    -9.0060150 Eh     change       -0.3908973E-03 Eh
   gradient norm :     0.0163241 Eh/α   predicted    -0.8525599E-03 ( 118.10%)
   displ. norm   :     0.2668037 α      lambda       -0.7275822E-03
   maximum displ.:     0.2622959 α      in ANC's #2, #1, #3, ...

........................................................................
.............................. CYCLE   11 ..............................
........................................................................

 iter      E             dE          RMSdq      gap      omega  full diag
   1     -9.0225996 -0.902260E+01  0.837E-01    0.00       0.0  T
   2     -8.9909571  0.316425E-01  0.292E+00    0.11       1.0  T
   3     -9.0246164 -0.336593E-01  0.228E-01    0.00       1.0  T
   4     -9.0246117  0.475827E-05  0.608E-02    0.00       1.0  T
   5     -9.0246204 -0.875789E-05  0.261E-02    0.00       2.2  T
   6     -9.0246208 -0.371048E-06  0.147E-02    0.00       3.9  T
   7     -9.0246199  0.859643E-06  0.186E-02    0.00       3.1  T
   8     -9.0246212 -0.130776E-05  0.252E-03    0.00      22.9  T
   9     -9.0246212 -0.152959E-07  0.105E-03    0.00      54.9  T
  10     -9.0246212 -0.381655E-08  0.211E-04    0.00     273.2  T
  11     -9.0246212 -0.144075E-09  0.643E-05    0.00     898.2  T
     SCC iter.                  ...        0 min,  0.001 sec
     gradient                   ...        0 min,  0.000 sec
 * total energy  :    -9.0060999 Eh     change       -0.8490362E-04 Eh
   gradient norm :     0.0146071 Eh/α   predicted    -0.3896853E-03 ( 358.97%)
   displ. norm   :     0.0415210 α      lambda       -0.2263004E-03
   maximum displ.:     0.0395469 α      in ANC's #1, #2, #3, ...

........................................................................
.............................. CYCLE   12 ..............................
........................................................................

 iter      E             dE          RMSdq      gap      omega  full diag
   1     -9.0226472 -0.902265E+01  0.169E-01    0.00       0.0  T
   2     -9.0216510  0.996193E-03  0.511E-01    0.03       1.0  T
   3     -9.0226703 -0.101929E-02  0.118E-01    0.00       1.0  T
   4     -9.0227061 -0.357171E-04  0.813E-03    0.00       7.1  T
   5     -9.0227061 -0.234724E-07  0.539E-03    0.00      10.7  T
   6     -9.0227061 -0.167238E-07  0.289E-03    0.00      20.0  T
   7     -9.0227061 -0.102114E-07  0.896E-04    0.00      64.5  T
   8     -9.0227061 -0.418051E-09  0.709E-05    0.00     814.5  T
     SCC iter.                  ...        0 min,  0.001 sec
     gradient                   ...        0 min,  0.000 sec
 * total energy  :    -9.0061997 Eh     change       -0.9978341E-04 Eh
   gradient norm :     0.0013851 Eh/α   predicted    -0.1133472E-03 (  13.59%)
   displ. norm   :     0.2051159 α      lambda       -0.4501677E-04
   maximum displ.:     0.2032751 α      in ANC's #2, #1, #3, ...

........................................................................
.............................. CYCLE   13 ..............................
........................................................................

 iter      E             dE          RMSdq      gap      omega  full diag
   1     -9.0212731 -0.902127E+01  0.699E-01    0.09       0.0  T
   2     -8.9977443  0.235287E-01  0.260E+00    0.00       1.0  T
   3     -9.0227396 -0.249953E-01  0.192E-01    0.04       1.0  T
   4     -9.0228048 -0.652282E-04  0.284E-02    0.03       2.0  T
   5     -9.0228053 -0.432858E-06  0.210E-02    0.03       2.7  T
   6     -9.0228058 -0.529654E-06  0.560E-03    0.03      10.3  T
   7     -9.0228058 -0.353698E-07  0.509E-04    0.03     113.4  T
   8     -9.0228058  0.590532E-10  0.286E-04    0.03     202.1  T
     SCC iter.                  ...        0 min,  0.001 sec
     gradient                   ...        0 min,  0.000 sec
 * total energy  :    -9.0061871 Eh     change        0.1260724E-04 Eh
   gradient norm :     0.0010370 Eh/α   predicted    -0.2292906E-04 (-281.87%)
   displ. norm   :     0.1270499 α      lambda       -0.4447412E-04
   maximum displ.:     0.1262202 α      in ANC's #2, #1, #3, ...

........................................................................
.............................. CYCLE   14 ..............................
........................................................................

 iter      E             dE          RMSdq      gap      omega  full diag
   1     -9.0222744 -0.902227E+01  0.462E-01    0.00       0.0  T
   2     -9.0114198  0.108546E-01  0.171E+00    0.12       1.0  T
   3     -9.0229306 -0.115109E-01  0.109E-01    0.00       1.0  T
   4     -9.0229445 -0.139240E-04  0.263E-02    0.00       2.2  T
   5     -9.0229459 -0.134029E-05  0.129E-02    0.00       4.5  T
   6     -9.0229461 -0.184752E-06  0.348E-03    0.00      16.6  T
   7     -9.0229461  0.265791E-08  0.167E-03    0.00      34.5  T
   8     -9.0229461 -0.101575E-07  0.253E-04    0.00     228.3  T
   9     -9.0229461 -0.136447E-09  0.459E-05    0.00    1257.0  T
     SCC iter.                  ...        0 min,  0.001 sec
     gradient                   ...        0 min,  0.000 sec
 * total energy  :    -9.0062154 Eh     change       -0.2832744E-04 Eh
   gradient norm :     0.0003350 Eh/α   predicted    -0.2239558E-04 ( -20.94%)
   displ. norm   :     0.0113606 α      lambda       -0.6838221E-06
   maximum displ.:     0.0112340 α      in ANC's #2, #1, #3, ...

........................................................................
.............................. CYCLE   15 ..............................
........................................................................

 iter      E             dE          RMSdq      gap      omega  full diag
   1     -9.0228383 -0.902284E+01  0.341E-02    0.01       0.0  T
   2     -9.0227800  0.582758E-04  0.127E-01    0.00       1.0  T
   3     -9.0228418 -0.617353E-04  0.907E-03    0.01       6.4  T
   4     -9.0228418 -0.445304E-07  0.145E-03    0.01      39.7  T
   5     -9.0228418 -0.671164E-09  0.103E-03    0.01      55.9  T
   6     -9.0228418 -0.881272E-09  0.442E-04    0.01     130.5  T
   7     -9.0228418 -0.184089E-09  0.736E-05    0.01     784.4  T
     SCC iter.                  ...        0 min,  0.001 sec
     gradient                   ...        0 min,  0.000 sec
 * total energy  :    -9.0062159 Eh     change       -0.4676607E-06 Eh
   gradient norm :     0.0005439 Eh/α   predicted    -0.3433722E-06 ( -26.58%)
   displ. norm   :     0.0039937 α      lambda       -0.1349803E-06
   maximum displ.:     0.0039234 α      in ANC's #2, #3, #1, ...

   *** GEOMETRY OPTIMIZATION CONVERGED AFTER 15 ITERATIONS ***

------------------------------------------------------------------------
 total energy gain   :        -0.0024847 Eh       -1.5592 kcal/mol
 total RMSD          :         1.2153239 a0        0.6431 Å
 total power (kW/mol):        -0.4349096 (step) -350.4328 (real)
------------------------------------------------------------------------

 ANCopt (total)                0 d,  0 h,  0 min,  0.019 sec
 optimizer setup                ...        0 min,  0.000 sec (  0.516%)
 model hessian                  ...        0 min,  0.000 sec (  0.479%)
 ANC generation                 ...        0 min,  0.000 sec (  0.321%)
 coordinate transformation      ...        0 min,  0.000 sec (  0.580%)
 single point calculation       ...        0 min,  0.017 sec ( 89.605%)
 optimization log               ...        0 min,  0.000 sec (  2.088%)
 hessian update                 ...        0 min,  0.000 sec (  0.869%)
 rational function              ...        0 min,  0.000 sec (  1.975%)

================
 final structure:
================
3
 xtb: 6.6.1 (8d0f1dd)
O            3.36002018865568       -2.51119126390776        2.05710677293923
Cl           3.74098601212646       -1.34153272358269        4.47916090070180
H            3.20818048405448       -2.93402804510843        1.20795493702084
 
 Bond Distances (Angstroems)
 ---------------------------
O1-H3=0.9607         H3-O1=0.9607         
 O  H  Rav=0.9607 sigma=0.0000  Rmin=0.9607  Rmax=0.9607     1
 
 selected bond angles (degree)
 --------------------

 
 selected dihedral angles (degree)
 ---------------------------------

 
 CMA Distance (Angstroems)
 ---------------------------
R(CMA):  2.7735
           -------------------------------------------------
          |                Final Singlepoint                |
           -------------------------------------------------

          ...................................................
          :                      SETUP                      :
          :.................................................:
          :  # basis functions                  15          :
          :  # atomic orbitals                  14          :
          :  # shells                            6          :
          :  # electrons                        14          :
          :  max. iterations                   800          :
          :  Hamiltonian                  GFN2-xTB          :
          :  restarted?                      false          :
          :  GBSA solvation                  false          :
          :  PC potential                    false          :
          :  electronic temp.         6000.0000000     K    :
          :  accuracy                    1.0000000          :
          :  -> integral cutoff          0.2500000E+02      :
          :  -> integral neglect         0.1000000E-07      :
          :  -> SCF convergence          0.1000000E-05 Eh   :
          :  -> wf. convergence          0.1000000E-03 e    :
          :  Broyden damping             0.4000000          :
          ...................................................

 iter      E             dE          RMSdq      gap      omega  full diag
   1     -9.0228418 -0.902284E+01  0.148E-05    0.01       0.0  T
   2     -9.0228418  0.426326E-12  0.150E-05    0.01    3860.3  T
   3     -9.0228418  0.675016E-12  0.195E-05    0.01    2962.4  T

   *** convergence criteria satisfied after 3 iterations ***

         #    Occupation            Energy/Eh            Energy/eV
      -------------------------------------------------------------
         1        2.0000           -1.0736060             -29.2143
         2        2.0000           -0.6781747             -18.4541
         3        1.9957           -0.5580672             -15.1858
         4        1.6724           -0.4724685             -12.8565
         5        1.6723           -0.4724652             -12.8564
         6        1.5616           -0.4656290             -12.6704
         7        1.5511           -0.4650546             -12.6548 (HOMO)
         8        1.5469           -0.4648267             -12.6486 (LUMO)
         9                         -0.0139368              -0.3792
        10                         -0.0139368              -0.3792
        11                         -0.0121884              -0.3317
        12                         -0.0121883              -0.3317
       ...                                ...                  ...
        14                          0.1503602               4.0915
      -------------------------------------------------------------
                  HL-Gap            0.0002279 Eh            0.0062 eV
             Fermi-level           -0.4414940 Eh          -12.0137 eV

 SCC (total)                   0 d,  0 h,  0 min,  0.001 sec
 SCC setup                      ...        0 min,  0.000 sec (  5.690%)
 Dispersion                     ...        0 min,  0.000 sec (  2.276%)
 classical contributions        ...        0 min,  0.000 sec (  1.355%)
 integral evaluation            ...        0 min,  0.000 sec ( 19.886%)
 iterations                     ...        0 min,  0.000 sec ( 38.851%)
 molecular gradient             ...        0 min,  0.000 sec ( 22.731%)
 printout                       ...        0 min,  0.000 sec (  5.012%)

         :::::::::::::::::::::::::::::::::::::::::::::::::::::
         ::                     SUMMARY                     ::
         :::::::::::::::::::::::::::::::::::::::::::::::::::::
         :: total energy              -9.006215904578 Eh    ::
         :: gradient norm              0.000546687058 Eh/a0 ::
         :: HOMO-LUMO gap              0.006201099433 eV    ::
         ::.................................................::
         :: SCC energy                -9.022841811710 Eh    ::
         :: -> isotropic ES            0.022126924679 Eh    ::
         :: -> anisotropic ES         -0.003428881750 Eh    ::
         :: -> anisotropic XC         -0.001578834167 Eh    ::
         :: -> dispersion             -0.000541413932 Eh    ::
         :: repulsion energy           0.016625928091 Eh    ::
         :: add. restraining           0.000000000000 Eh    ::
         :: total charge               0.000000000257 e     ::
         :::::::::::::::::::::::::::::::::::::::::::::::::::::

           -------------------------------------------------
          |                Property Printout                |
           -------------------------------------------------

    * Orbital Energies and Occupations

         #    Occupation            Energy/Eh            Energy/eV
      -------------------------------------------------------------
         1        2.0000           -1.0736060             -29.2143
         2        2.0000           -0.6781747             -18.4541
         3        1.9957           -0.5580672             -15.1858
         4        1.6724           -0.4724685             -12.8565
         5        1.6723           -0.4724652             -12.8564
         6        1.5616           -0.4656290             -12.6704
         7        1.5511           -0.4650546             -12.6548 (HOMO)
         8        1.5469           -0.4648267             -12.6486 (LUMO)
         9                         -0.0139368              -0.3792
        10                         -0.0139368              -0.3792
        11                         -0.0121884              -0.3317
        12                         -0.0121883              -0.3317
        13                         -0.0118677              -0.3229
        14                          0.1503602               4.0915
      -------------------------------------------------------------
                  HL-Gap            0.0002279 Eh            0.0062 eV
             Fermi-level           -0.4414940 Eh          -12.0137 eV

     #   Z          covCN         q      C6AA      α(0)
     1   8 O        0.808    -0.427    22.245     6.322
     2  17 Cl       0.003     0.119    89.418    14.391
     3   1 H        0.805     0.307     0.699     1.313

 Mol. C6AA /au·bohr⁶  :        224.037828
 Mol. C8AA /au·bohr⁸  :       7221.478004
 Mol. α(0) /au        :         22.026796


Wiberg/Mayer (AO) data.
largest (>0.10) Wiberg bond orders for each atom

 ---------------------------------------------------------------------------
     #   Z sym  total        # sym  WBO       # sym  WBO       # sym  WBO
 ---------------------------------------------------------------------------
     1   8 O    0.910 --     3 H    0.897
     2  17 Cl   0.013
     3   1 H    0.897 --     1 O    0.897
 ---------------------------------------------------------------------------

Topologies differ in total number of bonds
Writing topology from bond orders to xtbtopo.mol

molecular dipole:
                 x           y           z       tot (Debye)
 q only:       -0.002       0.018       0.053
   full:       -0.065      -0.166      -0.324       0.939
molecular quadrupole (traceless):
                xx          xy          yy          xz          yz          zz
 q only:       -2.097       0.580      -1.273       1.293       2.131       3.370
  q+dip:       -1.456      -0.881       2.735      -2.976       2.725      -1.279
   full:       -1.461      -0.882       2.732      -2.977       2.729      -1.271

           -------------------------------------------------
          |                Geometry Summary                 |
           -------------------------------------------------

      molecular mass/u    :       52.4602833
   center of mass at/Å    :        3.6145619      -1.7288541       3.6776290
  moments of inertia/u·Å² :        0.3891362E-03   0.8928486E+02   0.8928525E+02
rotational constants/cm⁻¹ :        0.4332065E+05   0.1888073E+00   0.1888065E+00


optimized geometry written to: xtbopt.xyz


           -------------------------------------------------
          | TOTAL ENERGY               -9.006215904578 Eh   |
          | GRADIENT NORM               0.000546687058 Eh/α |
          | HOMO-LUMO GAP               0.006201099433 eV   |
           -------------------------------------------------

------------------------------------------------------------------------
 * finished run on 2025/04/07 at 09:40:48.841     
------------------------------------------------------------------------
 total:
 * wall-time:     0 d,  0 h,  0 min,  0.126 sec
 *  cpu-time:     0 d,  0 h,  0 min,  0.493 sec
 * ratio c/w:     3.907 speedup
 SCF:
 * wall-time:     0 d,  0 h,  0 min,  0.034 sec
 *  cpu-time:     0 d,  0 h,  0 min,  0.247 sec
 * ratio c/w:     7.259 speedup
 ANC optimizer:
 * wall-time:     0 d,  0 h,  0 min,  0.020 sec
 *  cpu-time:     0 d,  0 h,  0 min,  0.161 sec
 * ratio c/w:     7.994 speedup

