3
 energy: -9.064873454156 gnorm: 0.000572653181 xtb: 6.6.1 (8d0f1dd)
O            3.79131008230282       -2.33527158710818        2.25153682368024
Cl           3.91798374840780       -1.73186469666838        3.84340515126385
H            3.89280548659529       -3.29300581199301        2.31499519256664
