      -----------------------------------------------------------      
     |                   =====================                   |     
     |                           x T B                           |     
     |                   =====================                   |     
     |                         S. Grimme                         |     
     |          Mulliken Center for Theoretical Chemistry        |     
     |                    University of Bonn                     |     
      -----------------------------------------------------------      

   * xtb version 6.6.1 (8d0f1dd) compiled by 'stahn@M-Bot' on 2023-08-01

   xtb is free software: you can redistribute it and/or modify it under
   the terms of the GNU Lesser General Public License as published by
   the Free Software Foundation, either version 3 of the License, or
   (at your option) any later version.
   
   xtb is distributed in the hope that it will be useful,
   but WITHOUT ANY WARRANTY; without even the implied warranty of
   MERCHANTABILITY or FITNESS FOR A PARTICULAR PURPOSE.  See the
   GNU Lesser General Public License for more details.
   
   Cite this work as:
   * C. Bannwarth, E. Caldeweyher, S. Ehlert, A. Hansen, P. Pracht,
     J. Seibert, S. Spicher, S. Grimme, WIREs Comput. Mol. Sci., 2020, 11,
     e01493. DOI: 10.1002/wcms.1493
   
   for GFN2-xTB:
   * C. Bannwarth, S. Ehlert and S. Grimme., J. Chem. Theory Comput., 2019,
     15, 1652-1671. DOI: 10.1021/acs.jctc.8b01176
   for GFN1-xTB:
   * S. Grimme, C. Bannwarth, P. Shushkov, J. Chem. Theory Comput., 2017,
     13, 1989-2009. DOI: 10.1021/acs.jctc.7b00118
   for GFN0-xTB:
   * P. Pracht, E. Caldeweyher, S. Ehlert, S. Grimme, ChemRxiv, 2019, preprint.
     DOI: 10.26434/chemrxiv.8326202.v1
   for GFN-FF:
   * S. Spicher and S. Grimme, Angew. Chem. Int. Ed., 2020, 59, 15665-15673.
     DOI: 10.1002/anie.202004239
   
   for ALPB and GBSA implicit solvation:
   * S. Ehlert, M. Stahn, S. Spicher, S. Grimme, J. Chem. Theory Comput.,
     2021, 17, 4250-4261. DOI: 10.1021/acs.jctc.1c00471
   
   for DFT-D4:
   * E. Caldeweyher, C. Bannwarth and S. Grimme, J. Chem. Phys., 2017,
     147, 034112. DOI: 10.1063/1.4993215
   * E. Caldeweyher, S. Ehlert, A. Hansen, H. Neugebauer, S. Spicher,
     C. Bannwarth and S. Grimme, J. Chem. Phys., 2019, 150, 154122.
     DOI: 10.1063/1.5090222
   * E. Caldeweyher, J.-M. Mewes, S. Ehlert and S. Grimme, Phys. Chem. Chem. Phys.
     2020, 22, 8499-8512. DOI: 10.1039/D0CP00502A
   
   for sTDA-xTB:
   * S. Grimme and C. Bannwarth, J. Chem. Phys., 2016, 145, 054103.
     DOI: 10.1063/1.4959605
   
   in the mass-spec context:
   * V. Asgeirsson, C. Bauer and S. Grimme, Chem. Sci., 2017, 8, 4879.
     DOI: 10.1039/c7sc00601b
   * J. Koopman and S. Grimme, ACS Omega 2019, 4, 12, 15120-15133.
     DOI: 10.1021/acsomega.9b02011
   
   for metadynamics refer to:
   * S. Grimme, J. Chem. Theory Comput., 2019, 155, 2847-2862
     DOI: 10.1021/acs.jctc.9b00143
   
   for SPH calculations refer to:
   * S. Spicher and S. Grimme, J. Chem. Theory Comput., 2021, 17, 1701-1714
     DOI: 10.1021/acs.jctc.0c01306
   
   with help from (in alphabetical order)
   P. Atkinson, C. Bannwarth, F. Bohle, G. Brandenburg, E. Caldeweyher
   M. Checinski, S. Dohm, S. Ehlert, S. Ehrlich, I. Gerasimov, C. Hölzer
   A. Katbashev, J. Koopman, C. Lavigne, S. Lehtola, F. März, M. Müller,
   F. Musil, H. Neugebauer, J. Pisarek, C. Plett, P. Pracht, F. Pultar,
   J. Seibert, P. Shushkov, S. Spicher, M. Stahn, M. Steiner, T. Strunk,
   J. Stückrath, T. Rose, and J. Unsleber
   
 * started run on 2025/04/07 at 09:40:48.850     

           -------------------------------------------------
          |                Calculation Setup                |
           -------------------------------------------------

          program call               : xtb 249.xyz --input 249.inp --opt
          hostname                   : serv11
          coordinate file            : 249.xyz
          omp threads                :                     8

   ID    Z sym.   atoms
    1    8 O      1
    2   17 Cl     2
    3    1 H      3

molecular fragmentation (1/2 indicates fragments):
121
# atoms in fragment 1/2:     2     1
 fragment masses (1/2) :       17.01       35.45
CMA distance (Bohr)    :  11.042
constraining FC (au)   :  0.0500

           -------------------------------------------------
          |                 G F N 2 - x T B                 |
           -------------------------------------------------

        Reference                      10.1021/acs.jctc.8b01176
      * Hamiltonian:
        H0-scaling (s, p, d)           1.850000    2.230000    2.230000
        zeta-weighting                 0.500000
      * Dispersion:
        s8                             2.700000
        a1                             0.520000
        a2                             5.000000
        s9                             5.000000
      * Repulsion:
        kExp                           1.500000    1.000000
        rExp                           1.000000
      * Coulomb:
        alpha                          2.000000
        third order                    shell-resolved
        anisotropic                    true
        a3                             3.000000
        a5                             4.000000
        cn-shift                       1.200000
        cn-exp                         4.000000
        max-rad                        5.000000

q/qsh data taken from xtbrestart
CAMM data taken from xtbrestart

          ...................................................
          :                      SETUP                      :
          :.................................................:
          :  # basis functions                  15          :
          :  # atomic orbitals                  14          :
          :  # shells                            6          :
          :  # electrons                        14          :
          :  max. iterations                   800          :
          :  Hamiltonian                  GFN2-xTB          :
          :  restarted?                       true          :
          :  GBSA solvation                  false          :
          :  PC potential                    false          :
          :  electronic temp.         6000.0000000     K    :
          :  accuracy                    1.0000000          :
          :  -> integral cutoff          0.2500000E+02      :
          :  -> integral neglect         0.1000000E-07      :
          :  -> SCF convergence          0.1000000E-05 Eh   :
          :  -> wf. convergence          0.1000000E-03 e    :
          :  Broyden damping             0.4000000          :
          ...................................................

 iter      E             dE          RMSdq      gap      omega  full diag
   1     -8.8056534 -0.880565E+01  0.743E+00    0.03       0.0  T
   2     -8.5819572  0.223696E+00  0.104E+01    0.00       1.0  T
   3     -8.7950028 -0.213046E+00  0.636E+00    0.00       1.0  T
   4     -8.5820135  0.212989E+00  0.109E+01    0.01       1.0  T
   5     -9.0085647 -0.426551E+00  0.374E-01    0.00       1.0  T
   6     -8.9173342  0.912305E-01  0.440E+00    0.00       1.0  T
   7     -8.9579907 -0.406565E-01  0.316E+00    0.00       1.0  T
   8     -8.9431526  0.148381E-01  0.359E+00    0.00       1.0  T
   9     -8.8988115  0.443411E-01  0.483E+00    0.00       1.0  T
  10     -8.9432607 -0.444492E-01  0.371E+00    0.00       1.0  T
  11     -9.0085725 -0.653119E-01  0.281E-01    0.00       1.0  T
  12     -9.0084404  0.132178E-03  0.325E-01    0.00       1.0  T
  13     -9.0086847 -0.244355E-03  0.239E-01    0.00       1.0  T
  14     -9.0089394 -0.254663E-03  0.757E-02    0.00       1.0  T
  15     -9.0089675 -0.281597E-04  0.791E-03    0.00       7.3  T
  16     -9.0089679 -0.304143E-06  0.116E-03    0.00      50.0  T
  17     -9.0089679 -0.117263E-08  0.105E-03    0.00      55.2  T
  18     -9.0089679 -0.449827E-08  0.436E-04    0.00     132.3  T
  19     -9.0089679 -0.789125E-09  0.176E-04    0.00     327.2  T

   *** convergence criteria satisfied after 19 iterations ***

         #    Occupation            Energy/Eh            Energy/eV
      -------------------------------------------------------------
         1        2.0000           -1.0902465             -29.6671
         2        2.0000           -0.6830460             -18.5866
         3        1.9934           -0.5626030             -15.3092
         4        1.6515           -0.4835332             -13.1576
         5        1.6499           -0.4834233             -13.1546
         6        1.6492           -0.4833819             -13.1535
         7        1.5282           -0.4763010             -12.9608 (HOMO)
         8        1.5277           -0.4762765             -12.9601 (LUMO)
         9                         -0.0263979              -0.7183
        10                         -0.0263835              -0.7179
        11                         -0.0263599              -0.7173
        12                         -0.0262989              -0.7156
       ...                                ...                  ...
        14                          0.0356564               0.9703
      -------------------------------------------------------------
                  HL-Gap            0.0000245 Eh            0.0007 eV
             Fermi-level           -0.4539695 Eh          -12.3531 eV

 SCC (total)                   0 d,  0 h,  0 min,  0.035 sec
 SCC setup                      ...        0 min,  0.000 sec (  0.377%)
 Dispersion                     ...        0 min,  0.000 sec (  0.127%)
 classical contributions        ...        0 min,  0.000 sec (  0.097%)
 integral evaluation            ...        0 min,  0.032 sec ( 89.552%)
 iterations                     ...        0 min,  0.003 sec (  8.866%)
 molecular gradient             ...        0 min,  0.000 sec (  0.661%)
 printout                       ...        0 min,  0.000 sec (  0.181%)

         :::::::::::::::::::::::::::::::::::::::::::::::::::::
         ::                     SUMMARY                     ::
         :::::::::::::::::::::::::::::::::::::::::::::::::::::
         :: total energy              -9.000122750223 Eh    ::
         :: gradient norm              0.063408152068 Eh/a0 ::
         :: HOMO-LUMO gap              0.000666126489 eV    ::
         ::.................................................::
         :: SCC energy                -9.008967859089 Eh    ::
         :: -> isotropic ES            0.018286661154 Eh    ::
         :: -> anisotropic ES         -0.001233893472 Eh    ::
         :: -> anisotropic XC         -0.000081783504 Eh    ::
         :: -> dispersion             -0.000100376628 Eh    ::
         :: repulsion energy           0.008845088086 Eh    ::
         :: add. restraining           0.000000000000 Eh    ::
         :: total charge               0.000000000215 e     ::
         :::::::::::::::::::::::::::::::::::::::::::::::::::::

      ----------------------------------------------------------- 
     |                   =====================                   |
     |                        A N C O P T                        |
     |                   =====================                   |
     |               Approximate Normal Coordinate               |
     |                Rational Function Optimizer                |
      ----------------------------------------------------------- 

          ...................................................
          :                      SETUP                      :
          :.................................................:
          :   optimization level            normal          :
          :   max. optcycles                   200          :
          :   ANC micro-cycles                  20          :
          :   degrees of freedom                 3          :
          :.................................................:
          :   RF solver                   davidson          :
          :   write xtbopt.log                true          :
          :   linear?                        false          :
          :   energy convergence         0.5000000E-05 Eh   :
          :   grad. convergence          0.1000000E-02 Eh/α :
          :   maxmium RF displ.          1.0000000          :
          :   Hlow (freq-cutoff)         0.1000000E-01      :
          :   Hmax (freq-cutoff)         5.0000000          :
          :   S6 in model hess.         20.0000000          :
          ...................................................

generating ANC from model Hessian ...
Using Lindh-Hessian (1995)
 Shifting diagonal of input Hessian by   9.988481010530551E-003
 Lowest  eigenvalues of input Hessian
    0.000000    0.000000    0.000000    0.000000    0.000000    0.000000
    0.010000    0.010009    1.041401
 Highest eigenvalues
    0.000000    0.000000    0.000000    0.010000    0.010009    1.041401
 

........................................................................
.............................. CYCLE    1 ..............................
........................................................................

 iter      E             dE          RMSdq      gap      omega  full diag
   1     -9.0089679 -0.900897E+01  0.346E-04    0.00       0.0  T
   2     -9.0089678  0.184480E-07  0.196E-03    0.00      29.5  T
   3     -9.0089679 -0.190419E-07  0.506E-06    0.00   11409.5  T
   4     -9.0089679 -0.479616E-13  0.172E-06    0.00   33527.6  T
     SCC iter.                  ...        0 min,  0.001 sec
     gradient                   ...        0 min,  0.000 sec
 * total energy  :    -9.0001228 Eh     change       -0.1547189E-09 Eh
   gradient norm :     0.0634080 Eh/α   predicted     0.0000000E+00 (-100.00%)
   displ. norm   :     0.0627223 α      lambda       -0.3849992E-02
   maximum displ.:     0.0606626 α      in ANC's #3, #1, #2, ...

........................................................................
.............................. CYCLE    2 ..............................
........................................................................

 iter      E             dE          RMSdq      gap      omega  full diag
   1     -9.0154988 -0.901550E+01  0.545E-01    0.00       0.0  T
   2     -8.9874868  0.280120E-01  0.240E+00    0.00       1.0  T
   3     -9.0156438 -0.281570E-01  0.456E-01    0.00       1.0  T
   4     -9.0164451 -0.801257E-03  0.470E-02    0.00       1.2  T
   5     -9.0164521 -0.703993E-05  0.101E-02    0.00       5.7  T
   6     -9.0164521 -0.707890E-08  0.294E-03    0.00      19.6  T
   7     -9.0164521 -0.211559E-07  0.472E-04    0.00     122.4  T
   8     -9.0164521 -0.961400E-10  0.361E-04    0.00     160.1  T
     SCC iter.                  ...        0 min,  0.001 sec
     gradient                   ...        0 min,  0.000 sec
 * total energy  :    -9.0028180 Eh     change       -0.2695250E-02 Eh
   gradient norm :     0.0230536 Eh/α   predicted    -0.1932569E-02 ( -28.30%)
   displ. norm   :     0.0356429 α      lambda       -0.7991837E-03
   maximum displ.:     0.0346525 α      in ANC's #3, #1, #2, ...

........................................................................
.............................. CYCLE    3 ..............................
........................................................................

 iter      E             dE          RMSdq      gap      omega  full diag
   1     -9.0202287 -0.902023E+01  0.307E-01    0.00       0.0  T
   2     -9.0112706  0.895812E-02  0.135E+00    0.00       1.0  T
   3     -9.0202465 -0.897591E-02  0.267E-01    0.00       1.0  T
   4     -9.0205216 -0.275080E-03  0.264E-02    0.00       2.2  T
   5     -9.0205238 -0.222768E-05  0.600E-03    0.00       9.6  T
   6     -9.0205238 -0.105022E-07  0.147E-03    0.00      39.2  T
   7     -9.0205238 -0.483694E-08  0.143E-04    0.00     402.9  T
   8     -9.0205238 -0.254445E-10  0.103E-04    0.00     559.6  T
     SCC iter.                  ...        0 min,  0.001 sec
     gradient                   ...        0 min,  0.000 sec
 * total energy  :    -9.0031043 Eh     change       -0.2862832E-03 Eh
   gradient norm :     0.0075067 Eh/α   predicted    -0.4000994E-03 (  39.76%)
   displ. norm   :     0.0249377 α      lambda       -0.6950620E-04
   maximum displ.:     0.0235063 α      in ANC's #1, #3, #2, ...

........................................................................
.............................. CYCLE    4 ..............................
........................................................................

 iter      E             dE          RMSdq      gap      omega  full diag
   1     -9.0195162 -0.901952E+01  0.856E-02    0.00       0.0  T
   2     -9.0191740  0.342111E-03  0.265E-01    0.00       1.0  T
   3     -9.0195042 -0.330176E-03  0.814E-02    0.00       1.0  T
   4     -9.0195273 -0.230926E-04  0.363E-03    0.00      15.9  T
   5     -9.0195273 -0.995653E-08  0.217E-03    0.00      26.6  T
   6     -9.0195273 -0.840574E-08  0.472E-04    0.00     122.3  T
   7     -9.0195273 -0.176112E-09  0.200E-04    0.00     288.2  T
     SCC iter.                  ...        0 min,  0.001 sec
     gradient                   ...        0 min,  0.000 sec
 * total energy  :    -9.0031393 Eh     change       -0.3501267E-04 Eh
   gradient norm :     0.0007758 Eh/α   predicted    -0.3477459E-04 (  -0.68%)
   displ. norm   :     0.0346899 α      lambda       -0.5717832E-05
   maximum displ.:     0.0346338 α      in ANC's #1, #2, #3, ...

........................................................................
.............................. CYCLE    5 ..............................
........................................................................

 iter      E             dE          RMSdq      gap      omega  full diag
   1     -9.0194428 -0.901944E+01  0.883E-02    0.00       0.0  T
   2     -9.0194010  0.417364E-04  0.105E-01    0.00       1.0  T
   3     -9.0193464  0.545989E-04  0.149E-01    0.00       1.0  T
   4     -9.0194442 -0.977909E-04  0.222E-03    0.00      26.0  T
   5     -9.0194442 -0.341692E-08  0.125E-03    0.00      46.2  T
   6     -9.0194442 -0.100016E-08  0.462E-04    0.00     125.1  T
   7     -9.0194442 -0.178007E-09  0.175E-04    0.00     329.4  T
     SCC iter.                  ...        0 min,  0.001 sec
     gradient                   ...        0 min,  0.000 sec
 * total energy  :    -9.0031474 Eh     change       -0.8064124E-05 Eh
   gradient norm :     0.0014922 Eh/α   predicted    -0.2860024E-05 ( -64.53%)
   displ. norm   :     0.0448723 α      lambda       -0.8524769E-05
   maximum displ.:     0.0444642 α      in ANC's #1, #2, #3, ...

........................................................................
.............................. CYCLE    6 ..............................
........................................................................

 iter      E             dE          RMSdq      gap      omega  full diag
   1     -9.0194539 -0.901945E+01  0.117E-01    0.00       0.0  T
   2     -9.0193247  0.129202E-03  0.175E-01    0.00       1.0  T
   3     -9.0193468 -0.221425E-04  0.164E-01    0.00       1.0  T
   4     -9.0194582 -0.111414E-03  0.279E-03    0.00      20.7  T
   5     -9.0194582 -0.427051E-08  0.177E-03    0.00      32.5  T
   6     -9.0194582 -0.200701E-08  0.583E-04    0.00      99.0  T
   7     -9.0194582 -0.299901E-09  0.169E-04    0.00     340.8  T
     SCC iter.                  ...        0 min,  0.000 sec
     gradient                   ...        0 min,  0.000 sec
 * total energy  :    -9.0031592 Eh     change       -0.1187179E-04 Eh
   gradient norm :     0.0014833 Eh/α   predicted    -0.4266793E-05 ( -64.06%)
   displ. norm   :     0.0928638 α      lambda       -0.1677673E-04
   maximum displ.:     0.0911614 α      in ANC's #1, #2, #3, ...

........................................................................
.............................. CYCLE    7 ..............................
........................................................................

 iter      E             dE          RMSdq      gap      omega  full diag
   1     -9.0191449 -0.901914E+01  0.238E-01    0.00       0.0  T
   2     -9.0189070  0.237907E-03  0.263E-01    0.00       1.0  T
   3     -9.0183622  0.544762E-03  0.418E-01    0.00       1.0  T
   4     -9.0191533 -0.791118E-03  0.660E-03    0.00       8.7  T
   5     -9.0191534 -0.610890E-07  0.320E-03    0.00      18.1  T
   6     -9.0191534 -0.576973E-08  0.132E-03    0.00      43.7  T
   7     -9.0191534 -0.170139E-08  0.576E-04    0.00     100.2  T
   8     -9.0191534 -0.432609E-09  0.760E-05    0.00     759.3  T
     SCC iter.                  ...        0 min,  0.001 sec
     gradient                   ...        0 min,  0.000 sec
 * total energy  :    -9.0031769 Eh     change       -0.1764126E-04 Eh
   gradient norm :     0.0040705 Eh/α   predicted    -0.8420729E-05 ( -52.27%)
   displ. norm   :     0.0473702 α      lambda       -0.1646369E-04
   maximum displ.:     0.0443641 α      in ANC's #1, #2, #3, ...

........................................................................
.............................. CYCLE    8 ..............................
........................................................................

 iter      E             dE          RMSdq      gap      omega  full diag
   1     -9.0191746 -0.901917E+01  0.121E-01    0.00       0.0  T
   2     -9.0190139  0.160698E-03  0.194E-01    0.00       1.0  T
   3     -9.0190828 -0.689002E-04  0.155E-01    0.00       1.0  T
   4     -9.0191800 -0.971979E-04  0.281E-03    0.00      20.5  T
   5     -9.0191800 -0.433833E-08  0.184E-03    0.00      31.4  T
   6     -9.0191800 -0.223238E-08  0.602E-04    0.00      95.9  T
   7     -9.0191800 -0.323228E-09  0.165E-04    0.00     350.6  T
     SCC iter.                  ...        0 min,  0.000 sec
     gradient                   ...        0 min,  0.000 sec
 * total energy  :    -9.0031906 Eh     change       -0.1369738E-04 Eh
   gradient norm :     0.0039752 Eh/α   predicted    -0.8250559E-05 ( -39.77%)
   displ. norm   :     0.0961343 α      lambda       -0.4758325E-04
   maximum displ.:     0.0832835 α      in ANC's #1, #2, #3, ...

........................................................................
.............................. CYCLE    9 ..............................
........................................................................

 iter      E             dE          RMSdq      gap      omega  full diag
   1     -9.0195053 -0.901951E+01  0.239E-01    0.00       0.0  T
   2     -9.0184937  0.101156E-02  0.474E-01    0.00       1.0  T
   3     -9.0193034 -0.809722E-03  0.254E-01    0.00       1.0  T
   4     -9.0195391 -0.235608E-03  0.544E-03    0.00      10.6  T
   5     -9.0195391 -0.155330E-07  0.369E-03    0.00      15.7  T
   6     -9.0195391 -0.859477E-08  0.119E-03    0.00      48.5  T
   7     -9.0195391 -0.138124E-08  0.283E-04    0.00     204.3  T
   8     -9.0195391 -0.481624E-10  0.224E-05    0.00    2575.9  T
     SCC iter.                  ...        0 min,  0.001 sec
     gradient                   ...        0 min,  0.000 sec
 * total energy  :    -9.0032251 Eh     change       -0.3451573E-04 Eh
   gradient norm :     0.0014080 Eh/α   predicted    -0.2401142E-04 ( -30.43%)
   displ. norm   :     0.3473787 α      lambda       -0.5736311E-04
   maximum displ.:     0.3101977 α      in ANC's #1, #2, #3, ...

........................................................................
.............................. CYCLE   10 ..............................
........................................................................

 iter      E             dE          RMSdq      gap      omega  full diag
   1     -9.0140406 -0.901404E+01  0.832E-01    0.00       0.0  T
   2     -9.0125791  0.146151E-02  0.710E-01    0.00       1.0  T
   3     -8.9973840  0.151951E-01  0.193E+00    0.00       1.0  T
   4     -9.0140985 -0.167145E-01  0.408E-02    0.00       1.4  T
   5     -9.0141026 -0.408057E-05  0.152E-02    0.00       3.8  T
   6     -9.0141029 -0.344928E-06  0.666E-03    0.00       8.7  T
   7     -9.0141030 -0.429053E-07  0.279E-03    0.00      20.7  T
   8     -9.0141030 -0.673204E-08  0.372E-04    0.00     155.3  T
   9     -9.0141030 -0.437943E-10  0.174E-04    0.00     332.5  T
     SCC iter.                  ...        0 min,  0.001 sec
     gradient                   ...        0 min,  0.000 sec
 * total energy  :    -9.0023611 Eh     change        0.8639761E-03 Eh
   gradient norm :     0.0387476 Eh/α   predicted    -0.3022010E-04 (-103.50%)
   displ. norm   :     0.1732383 α      lambda       -0.1887225E-02
   maximum displ.:     0.1654551 α      in ANC's #1, #2, #3, ...

........................................................................
.............................. CYCLE   11 ..............................
........................................................................

 iter      E             dE          RMSdq      gap      omega  full diag
   1     -9.0188474 -0.901885E+01  0.474E-01    0.00       0.0  T
   2     -9.0162784  0.256906E-02  0.759E-01    0.00       1.0  T
   3     -9.0169363 -0.657910E-03  0.699E-01    0.00       1.0  T
   4     -9.0189367 -0.200047E-02  0.156E-02    0.00       3.7  T
   5     -9.0189368 -0.525753E-08  0.958E-03    0.00       6.0  T
   6     -9.0189369 -0.159966E-06  0.327E-03    0.00      17.7  T
   7     -9.0189369 -0.129538E-07  0.149E-03    0.00      38.7  T
   8     -9.0189369 -0.276298E-08  0.205E-04    0.00     281.2  T
   9     -9.0189369 -0.138591E-10  0.110E-04    0.00     523.6  T
     SCC iter.                  ...        0 min,  0.001 sec
     gradient                   ...        0 min,  0.000 sec
 * total energy  :    -9.0032549 Eh     change       -0.8937569E-03 Eh
   gradient norm :     0.0064813 Eh/α   predicted    -0.9719332E-03 (   8.75%)
   displ. norm   :     0.0427665 α      lambda       -0.5406471E-04
   maximum displ.:     0.0372649 α      in ANC's #2, #1, #3, ...

........................................................................
.............................. CYCLE   12 ..............................
........................................................................

 iter      E             dE          RMSdq      gap      omega  full diag
   1     -9.0197299 -0.901973E+01  0.928E-02    0.00       0.0  T
   2     -9.0190502  0.679771E-03  0.374E-01    0.00       1.0  T
   3     -9.0197365 -0.686331E-03  0.689E-02    0.00       1.0  T
   4     -9.0197526 -0.161111E-04  0.280E-03    0.00      20.6  T
   5     -9.0197526  0.278413E-08  0.181E-03    0.00      31.9  T
   6     -9.0197526 -0.508709E-08  0.534E-04    0.00     108.1  T
   7     -9.0197526 -0.411392E-09  0.216E-04    0.00     267.5  T
     SCC iter.                  ...        0 min,  0.000 sec
     gradient                   ...        0 min,  0.000 sec
 * total energy  :    -9.0032867 Eh     change       -0.3183489E-04 Eh
   gradient norm :     0.0003974 Eh/α   predicted    -0.2708200E-04 ( -14.93%)
   displ. norm   :     0.0565874 α      lambda       -0.9714016E-05
   maximum displ.:     0.0446028 α      in ANC's #2, #1, #3, ...

........................................................................
.............................. CYCLE   13 ..............................
........................................................................

 iter      E             dE          RMSdq      gap      omega  full diag
   1     -9.0199472 -0.901995E+01  0.987E-02    0.00       0.0  T
   2     -9.0196567  0.290435E-03  0.252E-01    0.00       1.0  T
   3     -9.0199392 -0.282448E-03  0.787E-02    0.00       1.0  T
   4     -9.0199570 -0.177645E-04  0.226E-03    0.00      25.5  T
   5     -9.0199570 -0.145771E-08  0.161E-03    0.00      35.8  T
   6     -9.0199570 -0.163158E-08  0.574E-04    0.00     100.6  T
   7     -9.0199570 -0.362334E-09  0.185E-04    0.00     311.6  T
     SCC iter.                  ...        0 min,  0.000 sec
     gradient                   ...        0 min,  0.000 sec
 * total energy  :    -9.0033002 Eh     change       -0.1353468E-04 Eh
   gradient norm :     0.0013749 Eh/α   predicted    -0.4863049E-05 ( -64.07%)
   displ. norm   :     0.9660067 α      lambda       -0.1635614E-03
   maximum displ.:     0.7460978 α      in ANC's #2, #1, #3, ...

........................................................................
.............................. CYCLE   14 ..............................
........................................................................

 iter      E             dE          RMSdq      gap      omega  full diag
   1     -9.0068611 -0.900686E+01  0.139E+00    0.01       0.0  T
   2     -9.0043603  0.250081E-02  0.102E+00    0.01       1.0  T
   3     -8.9582765  0.460837E-01  0.343E+00    0.01       1.0  T
   4     -9.0070021 -0.487255E-01  0.821E-02    0.00       1.0  T
   5     -9.0070097 -0.762193E-05  0.444E-02    0.00       1.3  T
   6     -9.0070148 -0.508003E-05  0.175E-02    0.00       3.3  T
   7     -9.0070150 -0.256219E-06  0.704E-03    0.00       8.2  T
   8     -9.0070150  0.235214E-07  0.390E-03    0.00      14.8  T
   9     -9.0070151 -0.641268E-07  0.614E-04    0.00      94.1  T
  10     -9.0070151 -0.885104E-09  0.877E-05    0.00     658.6  T
     SCC iter.                  ...        0 min,  0.001 sec
     gradient                   ...        0 min,  0.000 sec
 * total energy  :    -8.9993017 Eh     change        0.3998530E-02 Eh
   gradient norm :     0.0731516 Eh/α   predicted    -0.1156873E-03 (-102.89%)
   displ. norm   :     0.3496182 α      lambda       -0.8450528E-02
   maximum displ.:     0.2824858 α      in ANC's #1, #2, #3, ...

........................................................................
.............................. CYCLE   15 ..............................
........................................................................

 iter      E             dE          RMSdq      gap      omega  full diag
   1     -9.0177594 -0.901776E+01  0.765E-01    0.00       0.0  T
   2     -9.0109207  0.683871E-02  0.123E+00    0.00       1.0  T
   3     -9.0120132 -0.109252E-02  0.123E+00    0.00       1.0  T
   4     -9.0180171 -0.600387E-02  0.303E-02    0.00       1.9  T
   5     -9.0180165  0.566534E-06  0.203E-02    0.00       2.8  T
   6     -9.0180174 -0.844489E-06  0.738E-03    0.00       7.8  T
   7     -9.0180174 -0.576029E-07  0.344E-03    0.00      16.8  T
   8     -9.0180175 -0.167280E-07  0.449E-04    0.00     128.7  T
   9     -9.0180175 -0.332076E-09  0.188E-04    0.00     307.2  T
     SCC iter.                  ...        0 min,  0.001 sec
     gradient                   ...        0 min,  0.000 sec
 * total energy  :    -9.0033486 Eh     change       -0.4046859E-02 Eh
   gradient norm :     0.0147342 Eh/α   predicted    -0.4741730E-02 (  17.17%)
   displ. norm   :     0.0321004 α      lambda       -0.1102656E-03
   maximum displ.:     0.0252680 α      in ANC's #2, #1, #3, ...

........................................................................
.............................. CYCLE   16 ..............................
........................................................................

 iter      E             dE          RMSdq      gap      omega  full diag
   1     -9.0189106 -0.901891E+01  0.751E-02    0.00       0.0  T
   2     -9.0186981  0.212466E-03  0.211E-01    0.00       1.0  T
   3     -9.0188888 -0.190689E-03  0.899E-02    0.00       1.0  T
   4     -9.0189181 -0.293593E-04  0.293E-03    0.00      19.7  T
   5     -9.0189181 -0.112621E-08  0.192E-03    0.00      30.1  T
   6     -9.0189181 -0.623215E-08  0.518E-04    0.00     111.4  T
   7     -9.0189181 -0.254150E-09  0.240E-04    0.00     240.4  T
     SCC iter.                  ...        0 min,  0.000 sec
     gradient                   ...        0 min,  0.000 sec
 * total energy  :    -9.0034312 Eh     change       -0.8267503E-04 Eh
   gradient norm :     0.0081392 Eh/α   predicted    -0.5518971E-04 ( -33.25%)
   displ. norm   :     0.0405404 α      lambda       -0.5942555E-04
   maximum displ.:     0.0381095 α      in ANC's #2, #1, #3, ...

........................................................................
.............................. CYCLE   17 ..............................
........................................................................

 iter      E             dE          RMSdq      gap      omega  full diag
   1     -9.0197679 -0.901977E+01  0.717E-02    0.00       0.0  T
   2     -9.0194728  0.295098E-03  0.248E-01    0.00       1.0  T
   3     -9.0197589 -0.286073E-03  0.737E-02    0.00       1.0  T
   4     -9.0197784 -0.195190E-04  0.253E-03    0.00      22.8  T
   5     -9.0197784  0.389575E-08  0.177E-03    0.00      32.7  T
   6     -9.0197784 -0.518787E-08  0.414E-04    0.00     139.3  T
   7     -9.0197784 -0.168267E-09  0.185E-04    0.00     312.8  T
     SCC iter.                  ...        0 min,  0.000 sec
     gradient                   ...        0 min,  0.000 sec
 * total energy  :    -9.0034656 Eh     change       -0.3440888E-04 Eh
   gradient norm :     0.0015814 Eh/α   predicted    -0.2975958E-04 ( -13.51%)
   displ. norm   :     0.0345064 α      lambda       -0.6217695E-05
   maximum displ.:     0.0340911 α      in ANC's #2, #1, #3, ...

........................................................................
.............................. CYCLE   18 ..............................
........................................................................

 iter      E             dE          RMSdq      gap      omega  full diag
   1     -9.0199992 -0.902000E+01  0.303E-02    0.00       0.0  T
   2     -9.0199058  0.933613E-04  0.141E-01    0.00       1.0  T
   3     -9.0200019 -0.960183E-04  0.142E-02    0.00       4.1  T
   4     -9.0200025 -0.645166E-06  0.102E-03    0.00      56.5  T
   5     -9.0200025 -0.753280E-09  0.575E-04    0.00     100.3  T
   6     -9.0200025 -0.322808E-09  0.241E-04    0.00     239.3  T
     SCC iter.                  ...        0 min,  0.000 sec
     gradient                   ...        0 min,  0.000 sec
 * total energy  :    -9.0034734 Eh     change       -0.7779657E-05 Eh
   gradient norm :     0.0005387 Eh/α   predicted    -0.3111988E-05 ( -60.00%)
   displ. norm   :     0.0722248 α      lambda       -0.1256804E-04
   maximum displ.:     0.0685780 α      in ANC's #2, #1, #3, ...

........................................................................
.............................. CYCLE   19 ..............................
........................................................................

 iter      E             dE          RMSdq      gap      omega  full diag
   1     -9.0201157 -0.902012E+01  0.664E-02    0.00       0.0  T
   2     -9.0198335  0.282178E-03  0.250E-01    0.00       1.0  T
   3     -9.0201250 -0.291518E-03  0.306E-02    0.00       1.9  T
   4     -9.0201257 -0.733719E-06  0.194E-03    0.00      29.7  T
   5     -9.0201257 -0.120353E-08  0.146E-03    0.00      39.4  T
   6     -9.0201257 -0.181772E-08  0.490E-04    0.00     117.9  T
   7     -9.0201257 -0.227921E-09  0.100E-04    0.00     576.4  T
     SCC iter.                  ...        0 min,  0.000 sec
     gradient                   ...        0 min,  0.000 sec
 * total energy  :    -9.0034924 Eh     change       -0.1895297E-04 Eh
   gradient norm :     0.0011588 Eh/α   predicted    -0.6296553E-05 ( -66.78%)
   displ. norm   :     0.0704205 α      lambda       -0.1332343E-04
   maximum displ.:     0.0663148 α      in ANC's #2, #1, #3, ...

........................................................................
.............................. CYCLE   20 ..............................
........................................................................

 iter      E             dE          RMSdq      gap      omega  full diag
   1     -9.0201416 -0.902014E+01  0.648E-02    0.00       0.0  T
   2     -9.0199094  0.232276E-03  0.229E-01    0.00       1.0  T
   3     -9.0201496 -0.240214E-03  0.307E-02    0.00       1.9  T
   4     -9.0201500 -0.418751E-06  0.201E-03    0.00      28.7  T
   5     -9.0201500 -0.121252E-08  0.154E-03    0.00      37.5  T
   6     -9.0201500 -0.229526E-08  0.489E-04    0.00     118.0  T
   7     -9.0201500 -0.187951E-09  0.983E-05    0.00     587.3  T
     SCC iter.                  ...        0 min,  0.000 sec
     gradient                   ...        0 min,  0.000 sec
 * total energy  :    -9.0035130 Eh     change       -0.2057934E-04 Eh
   gradient norm :     0.0011833 Eh/α   predicted    -0.6675344E-05 ( -67.56%)
   displ. norm   :     0.0749653 α      lambda       -0.1499062E-04
   maximum displ.:     0.0706291 α      in ANC's #2, #1, #3, ...
 * RMSD in coord.:     0.8432007 α      energy gain  -0.3390212E-02 Eh

generating ANC from model Hessian ...
Using Lindh-Hessian (1995)
 Shifting diagonal of input Hessian by   9.976781165707450E-003
 Lowest  eigenvalues of input Hessian
    0.000000    0.000000    0.000000    0.000000    0.000000    0.000000
    0.010000    0.010056    1.251778
 Highest eigenvalues
    0.000000    0.000000    0.000000    0.010000    0.010056    1.251778
 

........................................................................
.............................. CYCLE   21 ..............................
........................................................................

 iter      E             dE          RMSdq      gap      omega  full diag
   1     -9.0201340 -0.902013E+01  0.678E-02    0.00       0.0  T
   2     -9.0198801  0.253828E-03  0.240E-01    0.00       1.0  T
   3     -9.0201429 -0.262749E-03  0.317E-02    0.00       1.8  T
   4     -9.0201432 -0.279270E-06  0.220E-03    0.00      26.2  T
   5     -9.0201432 -0.147110E-08  0.170E-03    0.00      34.0  T
   6     -9.0201432 -0.291356E-08  0.540E-04    0.00     106.8  T
   7     -9.0201432 -0.230971E-09  0.128E-04    0.00     452.4  T
     SCC iter.                  ...        0 min,  0.000 sec
     gradient                   ...        0 min,  0.000 sec
 * total energy  :    -9.0035361 Eh     change       -0.2314622E-04 Eh
   gradient norm :     0.0009777 Eh/α   predicted     0.0000000E+00 (-100.00%)
   displ. norm   :     0.0811355 α      lambda       -0.2993026E-04
   maximum displ.:     0.0631061 α      in ANC's #1, #2, #3, ...

........................................................................
.............................. CYCLE   22 ..............................
........................................................................

 iter      E             dE          RMSdq      gap      omega  full diag
   1     -9.0197953 -0.901980E+01  0.197E-01    0.00       0.0  T
   2     -9.0192673  0.528058E-03  0.369E-01    0.00       1.0  T
   3     -9.0197635 -0.496192E-03  0.145E-01    0.00       1.0  T
   4     -9.0198151 -0.516260E-04  0.686E-03    0.00       8.4  T
   5     -9.0198151 -0.376007E-07  0.468E-03    0.00      12.3  T
   6     -9.0198151 -0.228907E-07  0.171E-03    0.00      33.8  T
   7     -9.0198152 -0.278238E-08  0.579E-04    0.00      99.8  T
   8     -9.0198152 -0.345084E-09  0.729E-05    0.00     792.4  T
     SCC iter.                  ...        0 min,  0.001 sec
     gradient                   ...        0 min,  0.000 sec
 * total energy  :    -9.0035788 Eh     change       -0.4264470E-04 Eh
   gradient norm :     0.0022483 Eh/α   predicted    -0.1501024E-04 ( -64.80%)
   displ. norm   :     0.0874391 α      lambda       -0.4283238E-04
   maximum displ.:     0.0635606 α      in ANC's #1, #2, #3, ...

........................................................................
.............................. CYCLE   23 ..............................
........................................................................

 iter      E             dE          RMSdq      gap      omega  full diag
   1     -9.0192256 -0.901923E+01  0.196E-01    0.00       0.0  T
   2     -9.0187894  0.436197E-03  0.343E-01    0.00       1.0  T
   3     -9.0191892 -0.399801E-03  0.146E-01    0.00       1.0  T
   4     -9.0192422 -0.529945E-04  0.766E-03    0.00       7.5  T
   5     -9.0192422 -0.578912E-07  0.494E-03    0.00      11.7  T
   6     -9.0192422 -0.267620E-07  0.193E-03    0.00      29.9  T
   7     -9.0192423 -0.386999E-08  0.684E-04    0.00      84.4  T
   8     -9.0192423 -0.392738E-09  0.798E-05    0.00     723.2  T
     SCC iter.                  ...        0 min,  0.001 sec
     gradient                   ...        0 min,  0.000 sec
 * total energy  :    -9.0036042 Eh     change       -0.2543584E-04 Eh
   gradient norm :     0.0070344 Eh/α   predicted    -0.2158069E-04 ( -15.16%)
   displ. norm   :     0.0249419 α      lambda       -0.2171937E-04
   maximum displ.:     0.0239809 α      in ANC's #2, #1, #3, ...

........................................................................
.............................. CYCLE   24 ..............................
........................................................................

 iter      E             dE          RMSdq      gap      omega  full diag
   1     -9.0194019 -0.901940E+01  0.467E-02    0.00       0.0  T
   2     -9.0192717  0.130253E-03  0.171E-01    0.00       1.0  T
   3     -9.0194061 -0.134476E-03  0.225E-02    0.00       2.6  T
   4     -9.0194067 -0.567091E-06  0.139E-03    0.00      41.6  T
   5     -9.0194067 -0.778215E-09  0.102E-03    0.00      56.9  T
   6     -9.0194067 -0.703031E-09  0.415E-04    0.00     139.2  T
   7     -9.0194067 -0.238469E-09  0.116E-04    0.00     497.0  T
     SCC iter.                  ...        0 min,  0.000 sec
     gradient                   ...        0 min,  0.000 sec
 * total energy  :    -9.0036247 Eh     change       -0.2052101E-04 Eh
   gradient norm :     0.0058848 Eh/α   predicted    -0.1086432E-04 ( -47.06%)
   displ. norm   :     0.2878145 α      lambda       -0.1820906E-03
   maximum displ.:     0.2713014 α      in ANC's #2, #1, #3, ...

........................................................................
.............................. CYCLE   25 ..............................
........................................................................

 iter      E             dE          RMSdq      gap      omega  full diag
   1     -9.0185110 -0.901851E+01  0.453E-01    0.00       0.0  T
   2     -9.0116381  0.687293E-02  0.130E+00    0.00       1.0  T
   3     -9.0187682 -0.713011E-02  0.234E-01    0.00       1.0  T
   4     -9.0187771 -0.888573E-05  0.185E-02    0.00       3.1  T
   5     -9.0187772 -0.136169E-06  0.141E-02    0.00       4.1  T
   6     -9.0187774 -0.248757E-06  0.507E-03    0.00      11.4  T
   7     -9.0187775 -0.269911E-07  0.166E-03    0.00      34.8  T
   8     -9.0187775 -0.166561E-08  0.180E-04    0.00     321.0  T
   9     -9.0187775 -0.151825E-10  0.810E-05    0.00     712.6  T
     SCC iter.                  ...        0 min,  0.001 sec
     gradient                   ...        0 min,  0.000 sec
 * total energy  :    -9.0037262 Eh     change       -0.1014817E-03 Eh
   gradient norm :     0.0118342 Eh/α   predicted    -0.9858636E-04 (  -2.85%)
   displ. norm   :     0.2535356 α      lambda       -0.3090582E-03
   maximum displ.:     0.2493357 α      in ANC's #2, #3, #1, ...

........................................................................
.............................. CYCLE   26 ..............................
........................................................................

 iter      E             dE          RMSdq      gap      omega  full diag
   1     -9.0202778 -0.902028E+01  0.355E-01    0.00       0.0  T
   2     -9.0093684  0.109094E-01  0.159E+00    0.00       1.0  T
   3     -9.0206733 -0.113048E-01  0.130E-01    0.00       1.0  T
   4     -9.0207099 -0.365967E-04  0.141E-02    0.00       4.1  T
   5     -9.0207100 -0.123861E-06  0.802E-03    0.00       7.2  T
   6     -9.0207100 -0.462300E-07  0.343E-03    0.00      16.8  T
   7     -9.0207100 -0.164408E-07  0.871E-04    0.00      66.3  T
   8     -9.0207100 -0.448967E-09  0.122E-04    0.00     472.8  T
     SCC iter.                  ...        0 min,  0.001 sec
     gradient                   ...        0 min,  0.000 sec
 * total energy  :    -9.0039193 Eh     change       -0.1930977E-03 Eh
   gradient norm :     0.0022597 Eh/α   predicted    -0.1644610E-03 ( -14.83%)
   displ. norm   :     0.6816967 α      lambda       -0.4138594E-03
   maximum displ.:     0.6756355 α      in ANC's #2, #3, #1, ...

........................................................................
.............................. CYCLE   27 ..............................
........................................................................

 iter      E             dE          RMSdq      gap      omega  full diag
   1     -9.0156209 -0.901562E+01  0.744E-01    0.00       0.0  T
   2     -8.9865189  0.291019E-01  0.275E+00    0.01       1.0  T
   3     -9.0168854 -0.303665E-01  0.355E-01    0.00       1.0  T
   4     -9.0169396 -0.542284E-04  0.472E-02    0.00       1.2  T
   5     -9.0169407 -0.108371E-05  0.357E-02    0.00       1.6  T
   6     -9.0169425 -0.177280E-05  0.138E-02    0.00       4.2  T
   7     -9.0169427 -0.178840E-06  0.396E-03    0.00      14.6  T
   8     -9.0169427 -0.832953E-08  0.524E-04    0.00     110.2  T
   9     -9.0169427 -0.439641E-09  0.211E-04    0.00     274.1  T
     SCC iter.                  ...        0 min,  0.001 sec
     gradient                   ...        0 min,  0.000 sec
 * total energy  :    -9.0039092 Eh     change        0.1005134E-04 Eh
   gradient norm :     0.0284846 Eh/α   predicted    -0.3030971E-03 (*******%)
   displ. norm   :     0.1879649 α      lambda       -0.9955396E-03
   maximum displ.:     0.1731685 α      in ANC's #2, #1, #3, ...

........................................................................
.............................. CYCLE   28 ..............................
........................................................................

 iter      E             dE          RMSdq      gap      omega  full diag
   1     -9.0209628 -0.902096E+01  0.269E-01    0.00       0.0  T
   2     -9.0202061  0.756734E-03  0.477E-01    0.00       1.0  T
   3     -9.0209755 -0.769404E-03  0.159E-01    0.00       1.0  T
   4     -9.0209975 -0.220709E-04  0.202E-02    0.00       2.9  T
   5     -9.0209979 -0.390238E-06  0.105E-02    0.00       5.5  T
   6     -9.0209980 -0.937648E-07  0.546E-03    0.00      10.6  T
   7     -9.0209980 -0.269411E-07  0.197E-03    0.00      29.3  T
   8     -9.0209980 -0.254440E-08  0.166E-04    0.00     348.5  T
   9     -9.0209980 -0.422418E-11  0.543E-05    0.00    1063.8  T
     SCC iter.                  ...        0 min,  0.001 sec
     gradient                   ...        0 min,  0.000 sec
 * total energy  :    -9.0042302 Eh     change       -0.3209533E-03 Eh
   gradient norm :     0.0020663 Eh/α   predicted    -0.5153554E-03 (  60.57%)
   displ. norm   :     0.3416036 α      lambda       -0.2300033E-03
   maximum displ.:     0.3373826 α      in ANC's #2, #3, #1, ...

........................................................................
.............................. CYCLE   29 ..............................
........................................................................

 iter      E             dE          RMSdq      gap      omega  full diag
   1     -9.0201880 -0.902019E+01  0.440E-01    0.00       0.0  T
   2     -9.0046753  0.155127E-01  0.197E+00    0.00       1.0  T
   3     -9.0208836 -0.162083E-01  0.108E-01    0.00       1.0  T
   4     -9.0208850 -0.144204E-05  0.218E-02    0.00       2.6  T
   5     -9.0208851 -0.127500E-06  0.156E-02    0.00       3.7  T
   6     -9.0208854 -0.296439E-06  0.403E-03    0.00      14.3  T
   7     -9.0208854 -0.101939E-07  0.882E-04    0.00      65.5  T
   8     -9.0208854 -0.290575E-09  0.215E-04    0.00     268.1  T
     SCC iter.                  ...        0 min,  0.001 sec
     gradient                   ...        0 min,  0.000 sec
 * total energy  :    -9.0044868 Eh     change       -0.2565782E-03 Eh
   gradient norm :     0.0016745 Eh/α   predicted    -0.1284208E-03 ( -49.95%)
   displ. norm   :     0.6134562 α      lambda       -0.3306883E-03
   maximum displ.:     0.6043260 α      in ANC's #2, #1, #3, ...

........................................................................
.............................. CYCLE   30 ..............................
........................................................................

 iter      E             dE          RMSdq      gap      omega  full diag
   1     -9.0170143 -0.901701E+01  0.891E-01    0.09       0.0  T
   2     -8.9637724  0.532419E-01  0.381E+00    0.01       1.0  T
   3     -9.0198963 -0.561239E-01  0.188E-01    0.05       1.0  T
   4     -9.0198993 -0.301624E-05  0.487E-02    0.05       1.2  T
   5     -9.0199008 -0.145918E-05  0.335E-02    0.05       1.7  T
   6     -9.0199021 -0.137035E-05  0.986E-03    0.05       5.9  T
   7     -9.0199022 -0.628612E-07  0.200E-03    0.05      28.9  T
   8     -9.0199022 -0.228874E-08  0.679E-04    0.05      85.0  T
   9     -9.0199022 -0.346905E-09  0.204E-04    0.05     282.6  T
     SCC iter.                  ...        0 min,  0.001 sec
     gradient                   ...        0 min,  0.000 sec
 * total energy  :    -9.0050512 Eh     change       -0.5644243E-03 Eh
   gradient norm :     0.0138539 Eh/α   predicted    -0.1930004E-03 ( -65.81%)
   displ. norm   :     0.4474061 α      lambda       -0.7320732E-03
   maximum displ.:     0.4316903 α      in ANC's #2, #1, #3, ...

........................................................................
.............................. CYCLE   31 ..............................
........................................................................

 iter      E             dE          RMSdq      gap      omega  full diag
   1     -9.0187145 -0.901871E+01  0.894E-01    0.22       0.0  T
   2     -8.9723734  0.463410E-01  0.362E+00    0.06       1.0  T
   3     -9.0214823 -0.491089E-01  0.168E-01    0.18       1.0  T
   4     -9.0215279 -0.455850E-04  0.444E-02    0.18       1.3  T
   5     -9.0215303 -0.235821E-05  0.242E-02    0.17       2.4  T
   6     -9.0215309 -0.673489E-06  0.725E-03    0.17       8.0  T
   7     -9.0215310 -0.317736E-07  0.777E-04    0.17      74.3  T
   8     -9.0215310 -0.213250E-09  0.452E-04    0.17     127.7  T
     SCC iter.                  ...        0 min,  0.001 sec
     gradient                   ...        0 min,  0.000 sec
 * total energy  :    -9.0060684 Eh     change       -0.1017160E-02 Eh
   gradient norm :     0.0090557 Eh/α   predicted    -0.4393024E-03 ( -56.81%)
   displ. norm   :     0.7454154 α      lambda       -0.2262545E-02
   maximum displ.:     0.7288551 α      in ANC's #2, #1, #3, ...

........................................................................
.............................. CYCLE   32 ..............................
........................................................................

 iter      E             dE          RMSdq      gap      omega  full diag
   1     -9.0166013 -0.901660E+01  0.206E+00    0.73       0.0  T
   2     -8.9525906  0.640107E-01  0.467E+00    0.47       1.0  T
   3     -9.0225427 -0.699521E-01  0.102E+00    0.73       1.0  T
   4     -9.0243596 -0.181689E-02  0.580E-02    0.71       1.0  T
   5     -9.0243608 -0.122546E-05  0.374E-02    0.71       1.5  T
   6     -9.0243616 -0.733994E-06  0.139E-02    0.71       4.2  T
   7     -9.0243617 -0.129514E-06  0.621E-03    0.71       9.3  T
   8     -9.0243618 -0.510234E-07  0.115E-03    0.71      50.4  T
   9     -9.0243618 -0.883171E-09  0.303E-04    0.71     190.7  T
  10     -9.0243618 -0.639488E-12  0.139E-04    0.71     416.4  T
     SCC iter.                  ...        0 min,  0.001 sec
     gradient                   ...        0 min,  0.000 sec
 * total energy  :    -9.0114699 Eh     change       -0.5401531E-02 Eh
   gradient norm :     0.0283220 Eh/α   predicted    -0.1759857E-02 ( -67.42%)
   displ. norm   :     0.8625637 α      lambda       -0.1460727E-01
   maximum displ.:     0.8113394 α      in ANC's #2, #1, #3, ...

........................................................................
.............................. CYCLE   33 ..............................
........................................................................

 iter      E             dE          RMSdq      gap      omega  full diag
   1     -9.0578058 -0.905781E+01  0.442E+00    2.73       0.0  T
   2     -9.0587819 -0.976096E-03  0.230E+00    2.73       1.0  T
   3     -9.0587905 -0.857150E-05  0.833E-01    2.74       1.0  T
   4     -9.0591722 -0.381739E-03  0.249E-01    2.75       1.0  T
   5     -9.0592625 -0.903403E-04  0.156E-01    2.77       1.0  T
   6     -9.0592992 -0.366871E-04  0.952E-02    2.79       1.0  T
   7     -9.0593193 -0.200545E-04  0.420E-02    2.80       1.4  T
   8     -9.0593209 -0.162321E-05  0.193E-02    2.80       3.0  T
   9     -9.0593214 -0.500587E-06  0.899E-03    2.81       6.4  T
  10     -9.0593215 -0.109406E-06  0.175E-03    2.81      33.1  T
  11     -9.0593215 -0.158946E-08  0.252E-04    2.81     229.4  T
  12     -9.0593215 -0.108860E-09  0.564E-05    2.81    1024.3  T
     SCC iter.                  ...        0 min,  0.001 sec
     gradient                   ...        0 min,  0.000 sec
 * total energy  :    -9.0431561 Eh     change       -0.3168622E-01 Eh
   gradient norm :     0.0587879 Eh/α   predicted    -0.1273762E-01 ( -59.80%)
   displ. norm   :     0.9427494 α      lambda       -0.4381656E-01
   maximum displ.:     0.8899318 α      in ANC's #2, #1, #3, ...

........................................................................
.............................. CYCLE   34 ..............................
........................................................................

 iter      E             dE          RMSdq      gap      omega  full diag
   1     -8.9426697 -0.894267E+01  0.668E+00    5.15       0.0  T
   2     -8.9539257 -0.112560E-01  0.461E+00    5.27       1.0  T
   3     -8.9605730 -0.664736E-02  0.182E+00    5.25       1.0  T
   4     -8.9632228 -0.264983E-02  0.112E+00    5.20       1.0  T
   5     -8.9654103 -0.218748E-02  0.334E-01    5.17       1.0  T
   6     -8.9654934 -0.831236E-04  0.151E-01    5.17       1.0  T
   7     -8.9655138 -0.203301E-04  0.344E-02    5.16       1.7  T
   8     -8.9655144 -0.608854E-06  0.206E-02    5.16       2.8  T
   9     -8.9655148 -0.397398E-06  0.920E-03    5.16       6.3  T
  10     -8.9655149 -0.769254E-07  0.276E-03    5.16      20.9  T
  11     -8.9655149 -0.223776E-08  0.715E-04    5.16      80.7  T
  12     -8.9655149 -0.362881E-09  0.823E-05    5.16     701.6  T
     SCC iter.                  ...        0 min,  0.001 sec
     gradient                   ...        0 min,  0.000 sec
 * total energy  :    -8.8945576 Eh     change        0.1485985E+00 Eh
   gradient norm :     0.7585856 Eh/α   predicted    -0.4137984E-01 (-127.85%)
   displ. norm   :     0.5561477 α      lambda       -0.4195652E+00
   maximum displ.:     0.5271534 α      in ANC's #2, #1, #3, ...

........................................................................
.............................. CYCLE   35 ..............................
........................................................................

 iter      E             dE          RMSdq      gap      omega  full diag
   1     -9.0704932 -0.907049E+01  0.522E+00    3.89       0.0  T
   2     -9.0831442 -0.126510E-01  0.330E+00    4.15       1.0  T
   3     -9.0856294 -0.248516E-02  0.208E+00    4.22       1.0  T
   4     -9.0887217 -0.309227E-02  0.902E-01    4.32       1.0  T
   5     -9.0908797 -0.215801E-02  0.348E-01    4.48       1.0  T
   6     -9.0911572 -0.277545E-03  0.157E-01    4.55       1.0  T
   7     -9.0912299 -0.727289E-04  0.357E-02    4.60       1.6  T
   8     -9.0912311 -0.117394E-05  0.174E-02    4.60       3.3  T
   9     -9.0912312 -0.776279E-07  0.114E-02    4.60       5.1  T
  10     -9.0912313 -0.103329E-06  0.322E-03    4.60      17.9  T
  11     -9.0912313 -0.394135E-08  0.151E-03    4.60      38.2  T
  12     -9.0912313 -0.314280E-09  0.412E-05    4.60    1400.6  T
  13     -9.0912313 -0.101430E-11  0.201E-05    4.60    2865.3  T
     SCC iter.                  ...        0 min,  0.001 sec
     gradient                   ...        0 min,  0.000 sec
 * total energy  :    -9.0525446 Eh     change       -0.1579870E+00 Eh
   gradient norm :     0.1636529 Eh/α   predicted    -0.2746684E+00 (  73.86%)
   displ. norm   :     0.4337911 α      lambda       -0.2491611E-01
   maximum displ.:     0.4143341 α      in ANC's #1, #2, #3, ...

........................................................................
.............................. CYCLE   36 ..............................
........................................................................

 iter      E             dE          RMSdq      gap      omega  full diag
   1     -9.0575020 -0.905750E+01  0.102E+00    3.85       0.0  T
   2     -9.0577874 -0.285396E-03  0.669E-01    3.87       1.0  T
   3     -9.0578063 -0.188442E-04  0.245E-01    3.88       1.0  T
   4     -9.0578178 -0.115372E-04  0.822E-02    3.89       1.0  T
   5     -9.0578295 -0.116808E-04  0.571E-02    3.89       1.0  T
   6     -9.0578381 -0.862830E-05  0.188E-02    3.91       3.1  T
   7     -9.0578385 -0.426914E-06  0.110E-02    3.91       5.2  T
   8     -9.0578386 -0.101412E-06  0.580E-03    3.91       9.9  T
   9     -9.0578387 -0.360539E-07  0.767E-04    3.91      75.2  T
  10     -9.0578387 -0.644894E-09  0.249E-04    3.91     232.0  T
     SCC iter.                  ...        0 min,  0.001 sec
     gradient                   ...        0 min,  0.000 sec
 * total energy  :    -9.0488526 Eh     change        0.3692017E-02 Eh
   gradient norm :     0.0746761 Eh/α   predicted    -0.1480234E-01 (-500.93%)
   displ. norm   :     0.4582419 α      lambda       -0.2637933E-01
   maximum displ.:     0.4081675 α      in ANC's #1, #3, #2, ...

........................................................................
.............................. CYCLE   37 ..............................
........................................................................

 iter      E             dE          RMSdq      gap      omega  full diag
   1     -9.0769951 -0.907700E+01  0.115E+00    4.33       0.0  T
   2     -9.0773894 -0.394331E-03  0.660E-01    4.31       1.0  T
   3     -9.0774023 -0.128760E-04  0.261E-01    4.31       1.0  T
   4     -9.0774052 -0.291831E-05  0.394E-02    4.31       1.5  T
   5     -9.0774055 -0.231471E-06  0.889E-03    4.31       6.5  T
   6     -9.0774055 -0.516125E-07  0.561E-03    4.31      10.3  T
   7     -9.0774056 -0.363527E-07  0.444E-03    4.31      13.0  T
   8     -9.0774056 -0.631744E-07  0.696E-04    4.31      82.9  T
   9     -9.0774056 -0.999201E-10  0.146E-04    4.31     395.5  T
     SCC iter.                  ...        0 min,  0.001 sec
     gradient                   ...        0 min,  0.000 sec
 * total energy  :    -9.0639927 Eh     change       -0.1514013E-01 Eh
   gradient norm :     0.0252570 Eh/α   predicted    -0.1595930E-01 (   5.41%)
   displ. norm   :     0.0878892 α      lambda       -0.1253136E-02
   maximum displ.:     0.0837741 α      in ANC's #1, #2, #3, ...

........................................................................
.............................. CYCLE   38 ..............................
........................................................................

 iter      E             dE          RMSdq      gap      omega  full diag
   1     -9.0800549 -0.908005E+01  0.172E-01    4.39       0.0  T
   2     -9.0800627 -0.776867E-05  0.108E-01    4.38       1.0  T
   3     -9.0800632 -0.476347E-06  0.417E-02    4.38       1.4  T
   4     -9.0800634 -0.257111E-06  0.116E-02    4.38       5.0  T
   5     -9.0800637 -0.227199E-06  0.759E-03    4.38       7.6  T
   6     -9.0800638 -0.147378E-06  0.238E-03    4.38      24.2  T
   7     -9.0800638 -0.118400E-07  0.126E-03    4.38      45.9  T
   8     -9.0800638 -0.171598E-08  0.446E-04    4.38     129.4  T
   9     -9.0800638 -0.231815E-09  0.877E-05    4.38     658.3  T
     SCC iter.                  ...        0 min,  0.001 sec
     gradient                   ...        0 min,  0.000 sec
 * total energy  :    -9.0647800 Eh     change       -0.7872750E-03 Eh
   gradient norm :     0.0110768 Eh/α   predicted    -0.6314065E-03 ( -19.80%)
   displ. norm   :     0.0246694 α      lambda       -0.1667238E-03
   maximum displ.:     0.0236207 α      in ANC's #1, #2, #3, ...

........................................................................
.............................. CYCLE   39 ..............................
........................................................................

 iter      E             dE          RMSdq      gap      omega  full diag
   1     -9.0814960 -0.908150E+01  0.527E-02    4.40       0.0  T
   2     -9.0814961 -0.167271E-06  0.334E-02    4.39       1.7  T
   3     -9.0814962 -0.891362E-07  0.567E-03    4.39      10.2  T
   4     -9.0814962 -0.182230E-07  0.449E-03    4.39      12.9  T
   5     -9.0814963 -0.319428E-07  0.307E-03    4.39      18.8  T
   6     -9.0814963 -0.235157E-07  0.105E-03    4.39      55.1  T
   7     -9.0814963 -0.131059E-08  0.465E-04    4.39     124.3  T
   8     -9.0814963 -0.362508E-09  0.200E-04    4.39     288.6  T
     SCC iter.                  ...        0 min,  0.001 sec
     gradient                   ...        0 min,  0.000 sec
 * total energy  :    -9.0648649 Eh     change       -0.8489419E-04 Eh
   gradient norm :     0.0027784 Eh/α   predicted    -0.8341365E-04 (  -1.74%)
   displ. norm   :     0.0038415 α      lambda       -0.6887396E-05
   maximum displ.:     0.0030057 α      in ANC's #1, #3, #2, ...

........................................................................
.............................. CYCLE   40 ..............................
........................................................................

 iter      E             dE          RMSdq      gap      omega  full diag
   1     -9.0814693 -0.908147E+01  0.148E-02    4.38       0.0  T
   2     -9.0814693 -0.160335E-07  0.965E-03    4.38       6.0  T
   3     -9.0814693 -0.112975E-07  0.206E-03    4.38      28.0  T
   4     -9.0814693 -0.170348E-08  0.167E-03    4.38      34.6  T
   5     -9.0814693 -0.424437E-08  0.841E-04    4.38      68.6  T
   6     -9.0814693 -0.238225E-08  0.229E-04    4.38     252.2  T
     SCC iter.                  ...        0 min,  0.000 sec
     gradient                   ...        0 min,  0.000 sec
 * total energy  :    -9.0648701 Eh     change       -0.5235097E-05 Eh
   gradient norm :     0.0018457 Eh/α   predicted    -0.3444525E-05 ( -34.20%)
   displ. norm   :     0.0054516 α      lambda       -0.6452909E-05
   maximum displ.:     0.0053084 α      in ANC's #2, #1, #3, ...

........................................................................
.............................. CYCLE   41 ..............................
........................................................................

 iter      E             dE          RMSdq      gap      omega  full diag
   1     -9.0815051 -0.908151E+01  0.335E-02    4.35       0.0  T
   2     -9.0815053 -0.277949E-06  0.226E-02    4.35       2.6  T
   3     -9.0815054 -0.484791E-07  0.860E-03    4.35       6.7  T
   4     -9.0815054 -0.251917E-07  0.419E-03    4.35      13.8  T
   5     -9.0815055 -0.319282E-07  0.187E-03    4.35      30.9  T
   6     -9.0815055 -0.122391E-07  0.869E-05    4.35     664.5  T
   7     -9.0815055 -0.437694E-11  0.531E-05    4.35    1088.1  T
     SCC iter.                  ...        0 min,  0.001 sec
     gradient                   ...        0 min,  0.000 sec
 * total energy  :    -9.0648735 Eh     change       -0.3326633E-05 Eh
   gradient norm :     0.0005655 Eh/α   predicted    -0.3226601E-05 (  -3.01%)
   displ. norm   :     0.0021320 α      lambda       -0.6269694E-06
   maximum displ.:     0.0017241 α      in ANC's #1, #2, #3, ...

   *** GEOMETRY OPTIMIZATION CONVERGED AFTER 41 ITERATIONS ***

------------------------------------------------------------------------
 total energy gain   :        -0.0647507 Eh      -40.6317 kcal/mol
 total RMSD          :         3.3736441 a0        1.7853 Å
 total power (kW/mol):        -4.1464134 (step)-3811.7245 (real)
------------------------------------------------------------------------

 ANCopt (total)                0 d,  0 h,  0 min,  0.045 sec
 optimizer setup                ...        0 min,  0.000 sec (  0.198%)
 model hessian                  ...        0 min,  0.000 sec (  0.222%)
 ANC generation                 ...        0 min,  0.000 sec (  0.204%)
 coordinate transformation      ...        0 min,  0.000 sec (  0.680%)
 single point calculation       ...        0 min,  0.040 sec ( 90.551%)
 optimization log               ...        0 min,  0.001 sec (  1.997%)
 hessian update                 ...        0 min,  0.000 sec (  0.883%)
 rational function              ...        0 min,  0.001 sec (  1.804%)

================
 final structure:
================
3
 xtb: 6.6.1 (8d0f1dd)
O            3.79131008230282       -2.33527158710818        2.25153682368024
Cl           3.91798374840780       -1.73186469666838        3.84340515126385
H            3.89280548659529       -3.29300581199301        2.31499519256664
 
 Bond Distances (Angstroems)
 ---------------------------
O1-Cl2=1.7071        O1-H3=0.9652         Cl2-O1=1.7071        H3-O1=0.9652         
 O  H  Rav=0.9652 sigma=0.0000  Rmin=0.9652  Rmax=0.9652     1
 Cl O  Rav=1.7071 sigma=0.0000  Rmin=1.7071  Rmax=1.7071     1
 
 selected bond angles (degree)
 --------------------
H3-O1-Cl2=106.36               
 
 selected dihedral angles (degree)
 ---------------------------------

 
 CMA Distance (Angstroems)
 ---------------------------
R(CMA):  1.7241
           -------------------------------------------------
          |                Final Singlepoint                |
           -------------------------------------------------

          ...................................................
          :                      SETUP                      :
          :.................................................:
          :  # basis functions                  15          :
          :  # atomic orbitals                  14          :
          :  # shells                            6          :
          :  # electrons                        14          :
          :  max. iterations                   800          :
          :  Hamiltonian                  GFN2-xTB          :
          :  restarted?                      false          :
          :  GBSA solvation                  false          :
          :  PC potential                    false          :
          :  electronic temp.         6000.0000000     K    :
          :  accuracy                    1.0000000          :
          :  -> integral cutoff          0.2500000E+02      :
          :  -> integral neglect         0.1000000E-07      :
          :  -> SCF convergence          0.1000000E-05 Eh   :
          :  -> wf. convergence          0.1000000E-03 e    :
          :  Broyden damping             0.4000000          :
          ...................................................

 iter      E             dE          RMSdq      gap      omega  full diag
   1     -9.0815055 -0.908151E+01  0.238E-05    4.35       0.0  T
   2     -9.0815055 -0.152767E-12  0.191E-05    4.35    3022.8  T
   3     -9.0815055 -0.314415E-12  0.497E-06    4.35   11620.4  T

   *** convergence criteria satisfied after 3 iterations ***

         #    Occupation            Energy/Eh            Energy/eV
      -------------------------------------------------------------
         1        2.0000           -1.0752194             -29.2582
         2        2.0000           -0.7091441             -19.2968
         3        2.0000           -0.5983236             -16.2812
         4        2.0000           -0.5548630             -15.0986
         5        1.9998           -0.5214367             -14.1890
         6        1.9895           -0.4478611             -12.1869
         7        1.9756           -0.4317803             -11.7493 (HOMO)
         8        0.0351           -0.2717964              -7.3960 (LUMO)
         9                         -0.0111720              -0.3040
        10                         -0.0109191              -0.2971
        11                         -0.0087529              -0.2382
        12                         -0.0007606              -0.0207
       ...                                ...                  ...
        14                          0.1353473               3.6830
      -------------------------------------------------------------
                  HL-Gap            0.1599839 Eh            4.3534 eV
             Fermi-level           -0.3482540 Eh           -9.4765 eV

 SCC (total)                   0 d,  0 h,  0 min,  0.001 sec
 SCC setup                      ...        0 min,  0.000 sec (  5.710%)
 Dispersion                     ...        0 min,  0.000 sec (  2.175%)
 classical contributions        ...        0 min,  0.000 sec (  1.142%)
 integral evaluation            ...        0 min,  0.000 sec ( 20.065%)
 iterations                     ...        0 min,  0.000 sec ( 37.167%)
 molecular gradient             ...        0 min,  0.000 sec ( 24.633%)
 printout                       ...        0 min,  0.000 sec (  5.111%)

         :::::::::::::::::::::::::::::::::::::::::::::::::::::
         ::                     SUMMARY                     ::
         :::::::::::::::::::::::::::::::::::::::::::::::::::::
         :: total energy              -9.064873454156 Eh    ::
         :: gradient norm              0.000572653181 Eh/a0 ::
         :: HOMO-LUMO gap              4.353383870051 eV    ::
         ::.................................................::
         :: SCC energy                -9.081505463101 Eh    ::
         :: -> isotropic ES            0.018167939240 Eh    ::
         :: -> anisotropic ES         -0.003252616851 Eh    ::
         :: -> anisotropic XC         -0.001693106292 Eh    ::
         :: -> dispersion             -0.000594283367 Eh    ::
         :: repulsion energy           0.016632008414 Eh    ::
         :: add. restraining           0.000000000000 Eh    ::
         :: total charge               0.000000002001 e     ::
         :::::::::::::::::::::::::::::::::::::::::::::::::::::

           -------------------------------------------------
          |                Property Printout                |
           -------------------------------------------------

    * Orbital Energies and Occupations

         #    Occupation            Energy/Eh            Energy/eV
      -------------------------------------------------------------
         1        2.0000           -1.0752194             -29.2582
         2        2.0000           -0.7091441             -19.2968
         3        2.0000           -0.5983236             -16.2812
         4        2.0000           -0.5548630             -15.0986
         5        1.9998           -0.5214367             -14.1890
         6        1.9895           -0.4478611             -12.1869
         7        1.9756           -0.4317803             -11.7493 (HOMO)
         8        0.0351           -0.2717964              -7.3960 (LUMO)
         9                         -0.0111720              -0.3040
        10                         -0.0109191              -0.2971
        11                         -0.0087529              -0.2382
        12                         -0.0007606              -0.0207
        13                          0.1034931               2.8162
        14                          0.1353473               3.6830
      -------------------------------------------------------------
                  HL-Gap            0.1599839 Eh            4.3534 eV
             Fermi-level           -0.3482540 Eh           -9.4765 eV

     #   Z          covCN         q      C6AA      α(0)
     1   8 O        1.733    -0.376    20.368     6.094
     2  17 Cl       0.931     0.052    97.643    15.117
     3   1 H        0.808     0.324     0.652     1.268

 Mol. C6AA /au·bohr⁶  :        229.924742
 Mol. C8AA /au·bohr⁸  :       7521.018211
 Mol. α(0) /au        :         22.479137


Wiberg/Mayer (AO) data.
largest (>0.10) Wiberg bond orders for each atom

 ---------------------------------------------------------------------------
     #   Z sym  total        # sym  WBO       # sym  WBO       # sym  WBO
 ---------------------------------------------------------------------------
     1   8 O    1.907 --     2 Cl   1.016     3 H    0.891
     2  17 Cl   1.019 --     1 O    1.016
     3   1 H    0.894 --     1 O    0.891
 ---------------------------------------------------------------------------

Topologies differ in total number of bonds
Writing topology from bond orders to xtbtopo.mol

molecular dipole:
                 x           y           z       tot (Debye)
 q only:        0.075      -0.527       0.195
   full:        0.083      -0.558       0.245       1.564
molecular quadrupole (traceless):
                xx          xy          yy          xz          yz          zz
 q only:       -2.876      -6.310       4.175       2.641      -4.497      -1.298
  q+dip:       -2.897      -6.762       5.231       3.041      -4.832      -2.334
   full:       -3.647      -6.743       4.945       3.197      -4.271      -1.298

           -------------------------------------------------
          |                Geometry Summary                 |
           -------------------------------------------------

      molecular mass/u    :       52.4602833
   center of mass at/Å    :        3.8788672      -1.9458875       3.3285494
  moments of inertia/u·Å² :        0.7952778E+00   0.3425254E+02   0.3504782E+02
rotational constants/cm⁻¹ :        0.2119716E+02   0.4921572E+00   0.4809895E+00

 * 1 selected distances

     #   Z          #   Z                                           value/Å
     1   8 O        3   1 H                                       0.9651856 (max)

 * 1 distinct bonds (by element types)

   Z      Z             #   av. dist./Å        max./Å        min./Å
   1 H    8 O           1     0.9651856     0.9651856     0.9651856


optimized geometry written to: xtbopt.xyz


           -------------------------------------------------
          | TOTAL ENERGY               -9.064873454156 Eh   |
          | GRADIENT NORM               0.000572653181 Eh/α |
          | HOMO-LUMO GAP               4.353383870051 eV   |
           -------------------------------------------------

------------------------------------------------------------------------
 * finished run on 2025/04/07 at 09:40:48.986     
------------------------------------------------------------------------
 total:
 * wall-time:     0 d,  0 h,  0 min,  0.135 sec
 *  cpu-time:     0 d,  0 h,  0 min,  0.704 sec
 * ratio c/w:     5.208 speedup
 SCF:
 * wall-time:     0 d,  0 h,  0 min,  0.035 sec
 *  cpu-time:     0 d,  0 h,  0 min,  0.257 sec
 * ratio c/w:     7.252 speedup
 ANC optimizer:
 * wall-time:     0 d,  0 h,  0 min,  0.046 sec
 *  cpu-time:     0 d,  0 h,  0 min,  0.369 sec
 * ratio c/w:     7.995 speedup

