3
 energy: -9.000122750378 gnorm: 0.063408038330 xtb: 6.6.1 (8d0f1dd)
O            3.70528614444850       -3.22759246093979        0.76469510289849
Cl           4.04218829929506       -0.48495358411620        5.95530028878976
H            3.85462487356197       -3.64759605071210        1.68994177582729
3
 energy: -9.002818000100 gnorm: 0.023053630969 xtb: 6.6.1 (8d0f1dd)
O            3.70844576460252       -3.23181846753191        0.78818996950326
Cl           4.04199874037155       -0.48443942069909        5.95410991127866
H            3.85165481233146       -3.64388420753717        1.66763728673355
3
 energy: -9.003104283312 gnorm: 0.007506689142 xtb: 6.6.1 (8d0f1dd)
O            3.71044236830822       -3.23904923489202        0.79920161921409
Cl           4.04200208326699       -0.48566930067358        5.95310424338610
H            3.84965486573032       -3.63542356020254        1.65763130491533
3
 energy: -9.003139295984 gnorm: 0.000775775364 xtb: 6.6.1 (8d0f1dd)
O            3.70977371047732       -3.23037926148590        0.80076853340291
Cl           4.04173623438804       -0.48474620404271        5.95160466333242
H            3.85058937244018       -3.64501663023966        1.65756397078008
3
 energy: -9.003147360109 gnorm: 0.001492236849 xtb: 6.6.1 (8d0f1dd)
O            3.70949913453581       -3.21941022700755        0.80764252219025
Cl           4.04131386472962       -0.48374934354896        5.94882717731476
H            3.85128631804011       -3.65698252521197        1.65346746801027
3
 energy: -9.003159231896 gnorm: 0.001483408085 xtb: 6.6.1 (8d0f1dd)
O            3.70930443025548       -3.20542493288571        0.81773684201561
Cl           4.04071662273036       -0.48312072075854        5.94424297407278
H            3.85207826431971       -3.67159644212449        1.64795735142671
3
 energy: -9.003176873154 gnorm: 0.004071639840 xtb: 6.6.1 (8d0f1dd)
O            3.70905279503719       -3.17653490908154        0.83987814075593
Cl           4.03939188426521       -0.48301922113571        5.93298754717753
H            3.85365463800317       -3.70058796555201        1.63707147958131
3
 energy: -9.003190570538 gnorm: 0.003976862000 xtb: 6.6.1 (8d0f1dd)
O            3.70920775831554       -3.16237991057955        0.85310860036388
Cl           4.03860827792515       -0.48461490572543        5.92493735721243
H            3.85428328106488       -3.71314727946452        1.63189120993831
3
 energy: -9.003225086268 gnorm: 0.001409002128 xtb: 6.6.1 (8d0f1dd)
O            3.71002136945476       -3.13535526735051        0.88280051148630
Cl           4.03683237812619       -0.49122062132295        5.90417910949869
H            3.85524556972465       -3.73356620709648        1.62295754652939
3
 energy: -9.002361110205 gnorm: 0.038850654481 xtb: 6.6.1 (8d0f1dd)
O            3.71215828433375       -3.03452317492107        0.98589038507162
Cl           4.03058851424685       -0.51143490664020        5.83372731125244
H            3.85935251872507       -3.81418401421034        1.59031947118939
3
 energy: -9.003254867134 gnorm: 0.006491312623 xtb: 6.6.1 (8d0f1dd)
O            3.71176026927485       -3.08639364073477        0.93886183734937
Cl           4.03328470437765       -0.50816322290671        5.85956015189440
H            3.85705434365313       -3.76558523212921        1.61151517827025
3
 energy: -9.003286702020 gnorm: 0.000397622827 xtb: 6.6.1 (8d0f1dd)
O            3.71270259709891       -3.07965016035816        0.95259992042057
Cl           4.03236950307410       -0.51611578958729        5.84503749387504
H            3.85702721713263       -3.76437614582530        1.61229975321844
3
 energy: -9.003300236700 gnorm: 0.001377192302 xtb: 6.6.1 (8d0f1dd)
O            3.71361615414993       -3.06746792758969        0.97066550229545
Cl           4.03113851698467       -0.52512710122911        5.82692110702248
H            3.85734464617105       -3.76754706695208        1.61235055819610
3
 energy: -8.999301706427 gnorm: 0.073636905246 xtb: 6.6.1 (8d0f1dd)
O            3.72866302750175       -2.85353487778277        1.27938850626891
Cl           4.01018019701763       -0.67449226690739        5.52189086612921
H            3.86325609278648       -3.83211495108326        1.60865779511544
3
 energy: -9.003348565842 gnorm: 0.014795310769 xtb: 6.6.1 (8d0f1dd)
O            3.72336053739118       -2.94128147965435        1.16020329940476
Cl           4.01671683085493       -0.64601120855207        5.60180106576670
H            3.86202194905968       -3.77284940756552        1.64793280234285
3
 energy: -9.003431240875 gnorm: 0.008171990617 xtb: 6.6.1 (8d0f1dd)
O            3.72355072396971       -2.94421954181551        1.15936063681618
Cl           4.01643528951832       -0.65267189949374        5.59378944841625
H            3.86211330381776       -3.76325065446254        1.65678708228202
3
 energy: -9.003465649755 gnorm: 0.001587954726 xtb: 6.6.1 (8d0f1dd)
O            3.72399005771493       -2.94468994495888        1.16272608057427
Cl           4.01584102548792       -0.66208296836018        5.58078771247672
H            3.86226823410294       -3.75336918245261        1.66642337446361
3
 energy: -9.003473429412 gnorm: 0.000538753914 xtb: 6.6.1 (8d0f1dd)
O            3.72450527042229       -2.94074459426127        1.17045460001859
Cl           4.01512740904066       -0.66982077134389        5.56817138522303
H            3.86246663784285       -3.74957673016650        1.67131118227306
3
 energy: -9.003492382384 gnorm: 0.001161374882 xtb: 6.6.1 (8d0f1dd)
O            3.72566432846856       -2.92984518804401        1.18954304817662
Cl           4.01356405951893       -0.68490795352614        5.54210011794648
H            3.86287092931832       -3.74538895420155        1.67829400139167
3
 energy: -9.003512961728 gnorm: 0.001185978714 xtb: 6.6.1 (8d0f1dd)
O            3.72679643436752       -2.91883305175993        1.20849556714389
Cl           4.01203281690435       -0.69942435473724        5.51678371725014
H            3.86327006603396       -3.74188468927458        1.68465788312083
3
 energy: -9.003536107953 gnorm: 0.000977728745 xtb: 6.6.1 (8d0f1dd)
O            3.72800164074161       -2.90713413327788        1.22865144223545
Cl           4.01040316127525       -0.71488965915636        5.48982683102094
H            3.86369451528898       -3.73811830333756        1.69145889425856
3
 energy: -9.003578752656 gnorm: 0.002248405621 xtb: 6.6.1 (8d0f1dd)
O            3.73011357188706       -2.89218890229041        1.25929961599266
Cl           4.00908711398706       -0.71622406691280        5.47743825987687
H            3.86289863143171       -3.75172912656867        1.67319929164552
3
 energy: -9.003604188496 gnorm: 0.007035913211 xtb: 6.6.1 (8d0f1dd)
O            3.73253978675520       -2.87662079369192        1.29316211926164
Cl           4.00757278133337       -0.71928827827460        5.46189750905511
H            3.86198674921727       -3.76423302380545        1.65487753919840
3
 energy: -9.003624709504 gnorm: 0.005886289180 xtb: 6.6.1 (8d0f1dd)
O            3.73324876476305       -2.87310127224712        1.30219131196819
Cl           4.00703040249150       -0.72319405876598        5.45396970366322
H            3.86182015005129       -3.76384676475887        1.65377615188374
3
 energy: -9.003726191164 gnorm: 0.011846813034 xtb: 6.6.1 (8d0f1dd)
O            3.74142660587263       -2.82931187044146        1.40902529018695
Cl           4.00082236253817       -0.76430109685179        5.36625451806179
H            3.85985034889504       -3.76652912847882        1.63465735926646
3
 energy: -9.003919288891 gnorm: 0.002261996695 xtb: 6.6.1 (8d0f1dd)
O            3.74696318014596       -2.80277784717711        1.47873681969934
Cl           3.99549377697322       -0.81820554803289        5.27530596849088
H            3.85964236018666       -3.73915870056199        1.65589437932480
3
 energy: -9.003909237548 gnorm: 0.028595845159 xtb: 6.6.1 (8d0f1dd)
O            3.76403097269410       -2.71576245611658        1.69802718051617
Cl           3.98064968173004       -0.94694138252279        5.03996675347078
H            3.85741866288170       -3.69743825713257        1.67194323352783
3
 energy: -9.004230190890 gnorm: 0.002068904584 xtb: 6.6.1 (8d0f1dd)
O            3.75828434963010       -2.74279962847541        1.62609434047885
Cl           3.98464594511279       -0.92214725079673        5.09502884462827
H            3.85916902256296       -3.69519521649974        1.68881398240761
3
 energy: -9.004486769089 gnorm: 0.001681203793 xtb: 6.6.1 (8d0f1dd)
O            3.76551060534259       -2.70410723934131        1.72049560489112
Cl           3.97741873050504       -0.99436069491918        4.97242934694903
H            3.85916998145822       -3.66167416151127        1.71701221567433
3
 energy: -9.005051193398 gnorm: 0.013932041928 xtb: 6.6.1 (8d0f1dd)
O            3.77816931244004       -2.63602014280413        1.88612276088158
Cl           3.96451647131157       -1.12556196379364        4.75164040507909
H            3.85941353355425       -3.59855998917378        1.77217400155336
3
 energy: -9.006068352933 gnorm: 0.009111988217 xtb: 6.6.1 (8d0f1dd)
O            3.78587158894193       -2.59072823000255        1.99014909745768
Cl           3.95546849299415       -1.22649567109730        4.58930103579892
H            3.86075923536979       -3.54291819467147        1.83048703425699
3
 energy: -9.011469884389 gnorm: 0.028379486735 xtb: 6.6.1 (8d0f1dd)
O            3.80002897005112       -2.51057724006072        2.17875136922462
Cl           3.94003539485927       -1.39020317704650        4.31950955943051
H            3.86203495239549       -3.45936167866378        1.91167623885785
3
 energy: -9.043156109008 gnorm: 0.059929357788 xtb: 6.6.1 (8d0f1dd)
O            3.81167357098963       -2.42623933303535        2.34936335136900
Cl           3.92329461669448       -1.59121837823878        4.00714887673034
H            3.86713112962179       -3.34268438449632        2.05342493941265
3
 energy: -8.894557604062 gnorm: 0.760574827970 xtb: 6.6.1 (8d0f1dd)
O            3.82312230586107       -2.32430808599774        2.53309394682272
Cl           3.90491299703571       -1.81088353498604        3.66505736892967
H            3.87406401440913       -3.22495047478607        2.21178585175854
3
 energy: -9.052544613341 gnorm: 0.165343591595 xtb: 6.6.1 (8d0f1dd)
O            3.80490559776361       -2.38493067035552        2.32616340058546
Cl           3.91682655600585       -1.72463392199262        3.83957951683087
H            3.88036716353644       -3.25057750342159        2.24419425009459
3
 energy: -9.048852596443 gnorm: 0.075060927577 xtb: 6.6.1 (8d0f1dd)
O            3.81114789834361       -2.36552464148687        2.39592210063055
Cl           3.91827544138869       -1.64147028486002        3.92192077905491
H            3.87267597757359       -3.35314716942349        2.09209428782637
3
 energy: -9.063992723267 gnorm: 0.025260337710 xtb: 6.6.1 (8d0f1dd)
O            3.79387508240848       -2.33173248606936        2.27647146489272
Cl           3.91807187442175       -1.71224669564588        3.86065762460883
H            3.89015236047567       -3.31616291405452        2.27280807800940
3
 energy: -9.064779998231 gnorm: 0.011077549382 xtb: 6.6.1 (8d0f1dd)
O            3.79179070866772       -2.33172588534109        2.25863316667045
Cl           3.91786783780521       -1.72825144600730        3.84545148328039
H            3.89244077083298       -3.30016476442123        2.30585251755993
3
 energy: -9.064864892424 gnorm: 0.002795403918 xtb: 6.6.1 (8d0f1dd)
O            3.79164376419060       -2.33454486018180        2.25500455007814
Cl           3.91782009298762       -1.73267495376697        3.84132273683059
H            3.89263546012770       -3.29292228182081        2.31360988060200
3
 energy: -9.064870127521 gnorm: 0.001849311927 xtb: 6.6.1 (8d0f1dd)
O            3.79146146069166       -2.33453243034483        2.25345434436941
Cl           3.91786476630808       -1.73277547285564        3.84162064195312
H            3.89277309030617       -3.29283419256912        2.31486218118819
3
 energy: -9.064873454154 gnorm: 0.000572713200 xtb: 6.6.1 (8d0f1dd)
O            3.79131008230282       -2.33527158710818        2.25153682368024
Cl           3.91798374840780       -1.73186469666838        3.84340515126385
H            3.89280548659529       -3.29300581199301        2.31499519256664
