 Entering Gaussian System, Link 0=g16
 Input=ts.gjf
 Output=ts.log
 Initial command:
 /share/apps/g16.a03/g16/l1.exe "/tmp/Gau-7140.inp" -scrdir="/tmp/"
 Entering Link 1 = /share/apps/g16.a03/g16/l1.exe PID=      7142.
  
 Copyright (c) 1988,1990,1992,1993,1995,1998,2003,2009,2016,
            Gaussian, Inc.  All Rights Reserved.
  
 This is part of the Gaussian(R) 16 program.  It is based on
 the Gaussian(R) 09 system (copyright 2009, Gaussian, Inc.),
 the Gaussian(R) 03 system (copyright 2003, Gaussian, Inc.),
 the Gaussian(R) 98 system (copyright 1998, Gaussian, Inc.),
 the Gaussian(R) 94 system (copyright 1995, Gaussian, Inc.),
 the Gaussian 92(TM) system (copyright 1992, Gaussian, Inc.),
 the Gaussian 90(TM) system (copyright 1990, Gaussian, Inc.),
 the Gaussian 88(TM) system (copyright 1988, Gaussian, Inc.),
 the Gaussian 86(TM) system (copyright 1986, Carnegie Mellon
 University), and the Gaussian 82(TM) system (copyright 1983,
 Carnegie Mellon University). Gaussian is a federally registered
 trademark of Gaussian, Inc.
  
 This software contains proprietary and confidential information,
 including trade secrets, belonging to Gaussian, Inc.
  
 This software is provided under written license and may be
 used, copied, transmitted, or stored only in accord with that
 written license.
  
 The following legend is applicable only to US Government
 contracts under FAR:
  
                    RESTRICTED RIGHTS LEGEND
  
 Use, reproduction and disclosure by the US Government is
 subject to restrictions as set forth in subparagraphs (a)
 and (c) of the Commercial Computer Software - Restricted
 Rights clause in FAR 52.227-19.
  
 Gaussian, Inc.
 340 Quinnipiac St., Bldg. 40, Wallingford CT 06492
  
  
 ---------------------------------------------------------------
 Warning -- This program may not be used in any manner that
 competes with the business of Gaussian, Inc. or will provide
 assistance to any competitor of Gaussian, Inc.  The licensee
 of this program is prohibited from giving any competitor of
 Gaussian, Inc. access to this program.  By using this program,
 the user acknowledges that Gaussian, Inc. is engaged in the
 business of creating and licensing software in the field of
 computational chemistry and represents and warrants to the
 licensee that it is not a competitor of Gaussian, Inc. and that
 it will not use this program in any manner prohibited above.
 ---------------------------------------------------------------
  

 Cite this work as:
 Gaussian 16, Revision A.03,
 M. J. Frisch, G. W. Trucks, H. B. Schlegel, G. E. Scuseria, 
 M. A. Robb, J. R. Cheeseman, G. Scalmani, V. Barone, 
 G. A. Petersson, H. Nakatsuji, X. Li, M. Caricato, A. V. Marenich, 
 J. Bloino, B. G. Janesko, R. Gomperts, B. Mennucci, H. P. Hratchian, 
 J. V. Ortiz, A. F. Izmaylov, J. L. Sonnenberg, D. Williams-Young, 
 F. Ding, F. Lipparini, F. Egidi, J. Goings, B. Peng, A. Petrone, 
 T. Henderson, D. Ranasinghe, V. G. Zakrzewski, J. Gao, N. Rega, 
 G. Zheng, W. Liang, M. Hada, M. Ehara, K. Toyota, R. Fukuda, 
 J. Hasegawa, M. Ishida, T. Nakajima, Y. Honda, O. Kitao, H. Nakai, 
 T. Vreven, K. Throssell, J. A. Montgomery, Jr., J. E. Peralta, 
 F. Ogliaro, M. J. Bearpark, J. J. Heyd, E. N. Brothers, K. N. Kudin, 
 V. N. Staroverov, T. A. Keith, R. Kobayashi, J. Normand, 
 K. Raghavachari, A. P. Rendell, J. C. Burant, S. S. Iyengar, 
 J. Tomasi, M. Cossi, J. M. Millam, M. Klene, C. Adamo, R. Cammi, 
 J. W. Ochterski, R. L. Martin, K. Morokuma, O. Farkas, 
 J. B. Foresman, and D. J. Fox, Gaussian, Inc., Wallingford CT, 2016.
 
 ******************************************
 Gaussian 16:  EM64L-G16RevA.03 25-Dec-2016
                 6-Mar-2025 
 ******************************************
 %nproc=8
 Will use up to    8 processors via shared memory.
 %mem=4000MB
 --------------------------------------------------------------------
 #opt=(noeigen,calcfc,ts,recalc=5,maxcyc=200) freq B3LYP/SVP em=GD3BJ
 --------------------------------------------------------------------
 1/5=1,6=200,10=4,11=1,18=20,26=3,38=1,71=5/1,3;
 2/9=110,12=2,17=6,18=5,40=1/2;
 3/5=18,7=101,11=2,25=1,30=1,71=2,74=-5,124=41,140=1/1,2,3;
 4//1;
 5/5=2,38=5/2;
 8/6=4,10=90,11=11/1;
 11/6=1,8=1,9=11,15=111,16=1/1,2,10;
 10/6=1,13=1/2;
 6/7=2,8=2,9=2,10=2,28=1/1;
 7/10=1,18=20,25=1/1,2,3,16;
 1/5=1,6=200,10=4,11=1,18=20,26=3,71=5/3(2);
 2/9=110/2;
 99//99;
 2/9=110/2;
 3/5=18,7=101,11=2,25=1,30=1,71=1,74=-5,124=41/1,2,3;
 4/5=5,16=3,69=1/1;
 5/5=2,38=5/2;
 7//1,2,3,16;
 1/5=1,6=200,11=1,18=20,26=3,71=5/3(-5);
 2/9=110/2;
 6/7=2,8=2,9=2,10=2,19=2,28=1/1;
 99/9=1/99;
 ----------
 ts-304.gjf
 ----------
 Symbolic Z-matrix:
 Charge =  0 Multiplicity = 1
 O                    -2.65568  -1.31322  -0.67308 
 Cl                   -1.9662    0.65143  -2.05197 
 H                    -3.47979  -1.25825  -1.16091 
 
 Add virtual bond connecting atoms Cl2        and O1         Dist= 4.72D+00.
 Add virtual bond connecting atoms Cl2        and H3         Dist= 4.90D+00.

 GradGradGradGradGradGradGradGradGradGradGradGradGradGradGradGradGradGrad
 Berny optimization.
 Initialization pass.
                           ----------------------------
                           !    Initial Parameters    !
                           ! (Angstroms and Degrees)  !
 --------------------------                            --------------------------
 ! Name  Definition              Value          Derivative Info.                !
 --------------------------------------------------------------------------------
 ! R1    R(1,2)                  2.4973         calculate D2E/DX2 analytically  !
 ! R2    R(1,3)                  0.9592         calculate D2E/DX2 analytically  !
 ! R3    R(2,3)                  2.5946         calculate D2E/DX2 analytically  !
 --------------------------------------------------------------------------------
 Trust Radius=3.00D-01 FncErr=1.00D-07 GrdErr=1.00D-06 EigMax=2.50D+02 EigMin=1.00D-04
 Number of steps in this run=    100 maximum allowed number of steps=    100.
 Search for a saddle point of order  1.
 GradGradGradGradGradGradGradGradGradGradGradGradGradGradGradGradGradGrad

                          Input orientation:                          
 ---------------------------------------------------------------------
 Center     Atomic      Atomic             Coordinates (Angstroms)
 Number     Number       Type             X           Y           Z
 ---------------------------------------------------------------------
      1          8           0       -2.655675   -1.313222   -0.673076
      2         17           0       -1.966202    0.651431   -2.051973
      3          1           0       -3.479785   -1.258251   -1.160909
 ---------------------------------------------------------------------
                    Distance matrix (angstroms):
                    1          2          3
     1  O    0.000000
     2  Cl   2.497317   0.000000
     3  H    0.959250   2.594574   0.000000
 Stoichiometry    ClHO
 Framework group  CS[SG(ClHO)]
 Deg. of freedom     3
 Full point group                 CS      NOp   2
 Largest Abelian subgroup         CS      NOp   2
 Largest concise Abelian subgroup C1      NOp   1
                         Standard orientation:                         
 ---------------------------------------------------------------------
 Center     Atomic      Atomic             Coordinates (Angstroms)
 Number     Number       Type             X           Y           Z
 ---------------------------------------------------------------------
      1          8           0        0.036749    1.636133    0.000000
      2         17           0        0.036749   -0.861184    0.000000
      3          1           0       -0.918721    1.551055   -0.000000
 ---------------------------------------------------------------------
 Rotational constants (GHZ):         581.8718084           7.1079393           7.0221591
 Standard basis: SVP (5D, 7F)
 There are    29 symmetry adapted cartesian basis functions of A'  symmetry.
 There are    10 symmetry adapted cartesian basis functions of A"  symmetry.
 There are    27 symmetry adapted basis functions of A'  symmetry.
 There are    10 symmetry adapted basis functions of A"  symmetry.
    37 basis functions,    69 primitive gaussians,    39 cartesian basis functions
    13 alpha electrons       13 beta electrons
       nuclear repulsion energy        36.6986700234 Hartrees.
 NAtoms=    3 NActive=    3 NUniq=    3 SFac= 1.00D+00 NAtFMM=   60 NAOKFM=F Big=F
 Integral buffers will be    131072 words long.
 Raffenetti 2 integral format.
 Two-electron integral symmetry is turned on.
 Nuclear repulsion after empirical dispersion term =       36.6970478584 Hartrees.
 One-electron integrals computed using PRISM.
 NBasis=    37 RedAO= T EigKep=  5.25D-02  NBF=    27    10
 NBsUse=    37 1.00D-06 EigRej= -1.00D+00 NBFU=    27    10
 ExpMin= 1.22D-01 ExpMax= 1.04D+04 ExpMxC= 1.57D+03 IAcc=3 IRadAn=         5 AccDes= 0.00D+00
 Harris functional with IExCor=  402 and IRadAn=       5 diagonalized for initial guess.
 HarFok:  IExCor=  402 AccDes= 0.00D+00 IRadAn=         5 IDoV= 1 UseB2=F ITyADJ=14
 ICtDFT=  3500011 ScaDFX=  1.000000  1.000000  1.000000  1.000000
 FoFCou: FMM=F IPFlag=           0 FMFlag=      100000 FMFlg1=           0
         NFxFlg=           0 DoJE=T BraDBF=F KetDBF=T FulRan=T
         wScrn=  0.000000 ICntrl=       500 IOpCl=  0 I1Cent=   200000004 NGrid=           0
         NMat0=    1 NMatS0=      1 NMatT0=    0 NMatD0=    1 NMtDS0=    0 NMtDT0=    0
 Petite list used in FoFCou.
 Initial guess orbital symmetries:
       Occupied  (A') (A') (A') (A') (A') (A") (A') (A') (A') (A')
                 (A") (A') (A")
       Virtual   (A') (A') (A') (A') (A') (A") (A') (A') (A") (A')
                 (A") (A') (A') (A") (A') (A') (A") (A') (A') (A")
                 (A') (A") (A') (A')
 The electronic state of the initial guess is 1-A'.
 Keep R1 ints in memory in symmetry-blocked form, NReq=7153137.
 Requested convergence on RMS density matrix=1.00D-08 within 128 cycles.
 Requested convergence on MAX density matrix=1.00D-06.
 Requested convergence on             energy=1.00D-06.
 No special actions if energy rises.
 Integral accuracy reduced to 1.0D-05 until final iterations.
 EnCoef did   100 forward-backward iterations
 Initial convergence to 1.0D-05 achieved.  Increase integral accuracy.
 SCF Done:  E(RB3LYP) =  -535.679935038     A.U. after   17 cycles
            NFock= 17  Conv=0.38D-08     -V/T= 2.0031
 DoSCS=F DFT=T ScalE2(SS,OS)=  1.000000  1.000000
 Range of M.O.s used for correlation:     1    37
 NBasis=    37 NAE=    13 NBE=    13 NFC=     0 NFV=     0
 NROrb=     37 NOA=    13 NOB=    13 NVA=    24 NVB=    24

 **** Warning!!: The smallest alpha delta epsilon is  0.88211307D-01

 Symmetrizing basis deriv contribution to polar:
 IMax=3 JMax=2 DiffMx= 0.00D+00
 G2DrvN: will do     4 centers at a time, making    1 passes.
 Calling FoFCou, ICntrl=  3107 FMM=F I1Cent=   0 AccDes= 0.00D+00.
 End of G2Drv F.D. properties file   721 does not exist.
 End of G2Drv F.D. properties file   722 does not exist.
 End of G2Drv F.D. properties file   788 does not exist.
          IDoAtm=111
          Differentiating once with respect to nuclear coordinates.
 Keep R1 ints in memory in symmetry-blocked form, NReq=7127949.
          There are    12 degrees of freedom in the 1st order CPHF.  IDoFFX=6 NUNeed=     0.
      6 vectors produced by pass  0 Test12= 2.60D-15 8.33D-09 XBig12= 9.49D-02 2.30D-01.
 AX will form     6 AO Fock derivatives at one time.
      6 vectors produced by pass  1 Test12= 2.60D-15 8.33D-09 XBig12= 3.93D-01 3.18D-01.
      6 vectors produced by pass  2 Test12= 2.60D-15 8.33D-09 XBig12= 1.78D-02 4.06D-02.
      6 vectors produced by pass  3 Test12= 2.60D-15 8.33D-09 XBig12= 1.99D-04 5.40D-03.
      6 vectors produced by pass  4 Test12= 2.60D-15 8.33D-09 XBig12= 1.70D-06 5.60D-04.
      6 vectors produced by pass  5 Test12= 2.60D-15 8.33D-09 XBig12= 4.21D-09 2.44D-05.
      4 vectors produced by pass  6 Test12= 2.60D-15 8.33D-09 XBig12= 4.15D-12 8.37D-07.
      1 vectors produced by pass  7 Test12= 2.60D-15 8.33D-09 XBig12= 2.04D-15 1.49D-08.
 InvSVY:  IOpt=1 It=  1 EMax= 2.22D-16
 Solved reduced A of dimension    41 with     6 vectors.
 End of Minotr F.D. properties file   721 does not exist.
 End of Minotr F.D. properties file   722 does not exist.
 End of Minotr F.D. properties file   788 does not exist.

 **********************************************************************

            Population analysis using the SCF density.

 **********************************************************************

 Orbital symmetries:
       Occupied  (A') (A') (A') (A') (A') (A") (A') (A') (A') (A')
                 (A") (A') (A")
       Virtual   (A') (A') (A') (A') (A') (A") (A') (A') (A") (A')
                 (A") (A') (A') (A") (A') (A') (A") (A') (A') (A")
                 (A') (A') (A") (A')
 The electronic state is 1-A'.
 Alpha  occ. eigenvalues -- -101.54874 -19.22875  -9.49667  -7.27006  -7.25430
 Alpha  occ. eigenvalues --   -7.25414  -0.99134  -0.80518  -0.47948  -0.38070
 Alpha  occ. eigenvalues --   -0.35158  -0.33188  -0.32470
 Alpha virt. eigenvalues --   -0.23649   0.05551   0.45012   0.57557   0.67505
 Alpha virt. eigenvalues --    0.73367   0.73910   0.76550   0.76553   0.81689
 Alpha virt. eigenvalues --    0.82464   0.84385   0.91699   0.93129   0.98840
 Alpha virt. eigenvalues --    1.27027   1.39663   1.40500   2.17730   2.57554
 Alpha virt. eigenvalues --    2.60031   2.91899   2.93846   3.64643
          Condensed to atoms (all electrons):
               1          2          3
     1  O    7.770567   0.112087   0.286204
     2  Cl   0.112087  16.911641   0.004250
     3  H    0.286204   0.004250   0.512712
 Mulliken charges:
               1
     1  O   -0.168858
     2  Cl  -0.027977
     3  H    0.196835
 Sum of Mulliken charges =   0.00000
 Mulliken charges with hydrogens summed into heavy atoms:
               1
     1  O    0.027977
     2  Cl  -0.027977
 APT charges:
               1
     1  O   -0.284854
     2  Cl  -0.064472
     3  H    0.349326
 Sum of APT charges =   0.00000
 APT charges with hydrogens summed into heavy atoms:
               1
     1  O    0.064472
     2  Cl  -0.064472
 Electronic spatial extent (au):  <R**2>=            171.3241
 Charge=              0.0000 electrons
 Dipole moment (field-independent basis, Debye):
    X=             -1.6921    Y=              0.0897    Z=             -0.0000  Tot=              1.6945
 Quadrupole moment (field-independent basis, Debye-Ang):
   XX=            -16.7708   YY=            -15.6220   ZZ=            -18.8515
   XY=             -2.7909   XZ=             -0.0000   YZ=             -0.0000
 Traceless Quadrupole moment (field-independent basis, Debye-Ang):
   XX=              0.3107   YY=              1.4594   ZZ=             -1.7701
   XY=             -2.7909   XZ=             -0.0000   YZ=             -0.0000
 Octapole moment (field-independent basis, Debye-Ang**2):
  XXX=             -2.1865  YYY=              1.9178  ZZZ=              0.0000  XYY=             -4.7577
  XXY=              3.9012  XXZ=              0.0000  XZZ=             -0.2664  YZZ=              0.6314
  YYZ=              0.0000  XYZ=              0.0000
 Hexadecapole moment (field-independent basis, Debye-Ang**3):
 XXXX=            -17.1621 YYYY=           -142.2474 ZZZZ=            -16.9293 XXXY=             -0.2799
 XXXZ=             -0.0000 YYYX=             -5.2105 YYYZ=              0.0000 ZZZX=             -0.0000
 ZZZY=              0.0000 XXYY=            -25.8926 XXZZ=             -5.9720 YYZZ=            -30.7366
 XXYZ=              0.0000 YYXZ=             -0.0000 ZZXY=              0.6204
 N-N= 3.669704785837D+01 E-N=-1.346053682938D+03  KE= 5.340147873119D+02
 Symmetry A'   KE= 4.832566220186D+02
 Symmetry A"   KE= 5.075816529332D+01
  Exact polarizability:   0.000   0.000   0.000   0.000   0.000   0.000
 Approx polarizability:  13.960  -0.876 165.102  -0.000  -0.000   9.401
 Calling FoFJK, ICntrl=    100147 FMM=F ISym2X=1 I1Cent= 0 IOpClX= 0 NMat=1 NMatS=1 NMatT=0.
 ***** Axes restored to original set *****
 -------------------------------------------------------------------
 Center     Atomic                   Forces (Hartrees/Bohr)
 Number     Number              X              Y              Z
 -------------------------------------------------------------------
      1        8           0.035012778    0.047171113   -0.023274897
      2       17          -0.016084466   -0.047245429    0.033423456
      3        1          -0.018928312    0.000074316   -0.010148559
 -------------------------------------------------------------------
 Cartesian Forces:  Max     0.047245429 RMS     0.029929504
 FormGI is forming the generalized inverse of G from B-inverse, IUseBI=4.

 GradGradGradGradGradGradGradGradGradGradGradGradGradGradGradGradGradGrad
 Berny optimization.
 Internal  Forces:  Max     0.061488952 RMS     0.037523020
 Search for a saddle point.
 Step number   1 out of a maximum of  100
 All quantities printed in internal units (Hartrees-Bohrs-Radians)
 Swapping is turned off.
 Second derivative matrix not updated -- analytic derivatives used.
 The second derivative matrix:
                          R1        R2        R3
           R1          -0.00918
           R2           0.00148   0.56974
           R3          -0.01631  -0.00578   0.02470
 ITU=  0
     Eigenvalues ---   -0.01576   0.03121   0.56981
 Eigenvectors required to have negative eigenvalues:
                          R1        R3        R2
   1                    0.92738   0.37411   0.00135
 RFO step:  Lambda0=4.909055369D-02 Lambda=-1.41438854D-02.
 Linear search not attempted -- option 19 set.
 Maximum step size (   0.300) exceeded in Quadratic search.
    -- Step size scaled by   0.292
 Iteration  1 RMS(Cart)=  0.09038528 RMS(Int)=  0.02446527
 Iteration  2 RMS(Cart)=  0.01978774 RMS(Int)=  0.00024461
 Iteration  3 RMS(Cart)=  0.00017618 RMS(Int)=  0.00000000
 Iteration  4 RMS(Cart)=  0.00000000 RMS(Int)=  0.00000000
 ClnCor:  largest displacement from symmetrization is 1.83D-15 for atom     3.
 Variable       Old X    -DE/DX   Delta X   Delta X   Delta X     New X
                                 (Linear)    (Quad)   (Total)
    R1        4.71924  -0.06149   0.00000   0.17640   0.17640   4.89564
    R2        1.81272   0.02099   0.00000   0.01249   0.01249   1.82521
    R3        4.90303   0.00153   0.00000   0.24234   0.24234   5.14537
         Item               Value     Threshold  Converged?
 Maximum Force            0.061489     0.000450     NO 
 RMS     Force            0.037523     0.000300     NO 
 Maximum Displacement     0.108200     0.001800     NO 
 RMS     Displacement     0.103524     0.001200     NO 
 Predicted change in Energy= 1.012814D-02
 GradGradGradGradGradGradGradGradGradGradGradGradGradGradGradGradGradGrad

                          Input orientation:                          
 ---------------------------------------------------------------------
 Center     Atomic      Atomic             Coordinates (Angstroms)
 Number     Number       Type             X           Y           Z
 ---------------------------------------------------------------------
      1          8           0       -2.666411   -1.329622   -0.664218
      2         17           0       -1.928314    0.708688   -2.082681
      3          1           0       -3.506937   -1.299108   -1.139059
 ---------------------------------------------------------------------
                    Distance matrix (angstroms):
                    1          2          3
     1  O    0.000000
     2  Cl   2.590662   0.000000
     3  H    0.965862   2.722814   0.000000
 Stoichiometry    ClHO
 Framework group  CS[SG(ClHO)]
 Deg. of freedom     3
 Full point group                 CS      NOp   2
 Largest Abelian subgroup         CS      NOp   2
 Largest concise Abelian subgroup C1      NOp   1
                         Standard orientation:                         
 ---------------------------------------------------------------------
 Center     Atomic      Atomic             Coordinates (Angstroms)
 Number     Number       Type             X           Y           Z
 ---------------------------------------------------------------------
      1          8           0        0.037109    1.695607    0.000000
      2         17           0        0.037109   -0.895055   -0.000000
      3          1           0       -0.927726    1.651081    0.000000
 ---------------------------------------------------------------------
 Rotational constants (GHZ):         571.7322354           6.5922207           6.5170772
 Standard basis: SVP (5D, 7F)
 There are    29 symmetry adapted cartesian basis functions of A'  symmetry.
 There are    10 symmetry adapted cartesian basis functions of A"  symmetry.
 There are    27 symmetry adapted basis functions of A'  symmetry.
 There are    10 symmetry adapted basis functions of A"  symmetry.
    37 basis functions,    69 primitive gaussians,    39 cartesian basis functions
    13 alpha electrons       13 beta electrons
       nuclear repulsion energy        35.4667957153 Hartrees.
 NAtoms=    3 NActive=    3 NUniq=    3 SFac= 1.00D+00 NAtFMM=   60 NAOKFM=F Big=F
 Integral buffers will be    131072 words long.
 Raffenetti 2 integral format.
 Two-electron integral symmetry is turned on.
 Nuclear repulsion after empirical dispersion term =       35.4652203306 Hartrees.
 One-electron integrals computed using PRISM.
 NBasis=    37 RedAO= T EigKep=  5.36D-02  NBF=    27    10
 NBsUse=    37 1.00D-06 EigRej= -1.00D+00 NBFU=    27    10
 Initial guess from the checkpoint file:  "/tmp/Gau-7142.chk"
 B after Tr=    -0.000000   -0.000000    0.000000
         Rot=    0.999999   -0.000000    0.000000    0.001046 Ang=   0.12 deg.
 Initial guess orbital symmetries:
       Occupied  (A') (A') (A') (A') (A') (A") (A') (A') (A') (A')
                 (A") (A') (A")
       Virtual   (A') (A') (A') (A') (A') (A") (A') (A') (A") (A')
                 (A") (A') (A') (A") (A') (A') (A") (A') (A') (A")
                 (A') (A') (A") (A')
 ExpMin= 1.22D-01 ExpMax= 1.04D+04 ExpMxC= 1.57D+03 IAcc=2 IRadAn=         4 AccDes= 0.00D+00
 Harris functional with IExCor=  402 and IRadAn=       4 diagonalized for initial guess.
 HarFok:  IExCor=  402 AccDes= 0.00D+00 IRadAn=         4 IDoV= 1 UseB2=F ITyADJ=14
 ICtDFT=  3500011 ScaDFX=  1.000000  1.000000  1.000000  1.000000
 FoFCou: FMM=F IPFlag=           0 FMFlag=      100000 FMFlg1=           0
         NFxFlg=           0 DoJE=T BraDBF=F KetDBF=T FulRan=T
         wScrn=  0.000000 ICntrl=       500 IOpCl=  0 I1Cent=   200000004 NGrid=           0
         NMat0=    1 NMatS0=      1 NMatT0=    0 NMatD0=    1 NMtDS0=    0 NMtDT0=    0
 Petite list used in FoFCou.
 Keep R1 ints in memory in symmetry-blocked form, NReq=7153137.
 Requested convergence on RMS density matrix=1.00D-08 within 128 cycles.
 Requested convergence on MAX density matrix=1.00D-06.
 Requested convergence on             energy=1.00D-06.
 No special actions if energy rises.
 Integral accuracy reduced to 1.0D-05 until final iterations.
 Initial convergence to 1.0D-05 achieved.  Increase integral accuracy.
 SCF Done:  E(RB3LYP) =  -535.669851355     A.U. after   14 cycles
            NFock= 14  Conv=0.45D-08     -V/T= 2.0031
 Calling FoFJK, ICntrl=      2127 FMM=F ISym2X=1 I1Cent= 0 IOpClX= 0 NMat=1 NMatS=1 NMatT=0.
 ***** Axes restored to original set *****
 -------------------------------------------------------------------
 Center     Atomic                   Forces (Hartrees/Bohr)
 Number     Number              X              Y              Z
 -------------------------------------------------------------------
      1        8           0.029015821    0.043421529   -0.023136702
      2       17          -0.016517387   -0.044690977    0.030922488
      3        1          -0.012498435    0.001269448   -0.007785786
 -------------------------------------------------------------------
 Cartesian Forces:  Max     0.044690977 RMS     0.027299578

 GradGradGradGradGradGradGradGradGradGradGradGradGradGradGradGradGradGrad
 Berny optimization.
 FormGI is forming the generalized inverse of G from B-inverse, IUseBI=4.
 Internal  Forces:  Max     0.055793955 RMS     0.033373878
 Search for a saddle point.
 Step number   2 out of a maximum of  100
 All quantities printed in internal units (Hartrees-Bohrs-Radians)
 Swapping is turned off.
 Update second derivatives using D2CorX and points    1    2
 The second derivative matrix:
                          R1        R2        R3
           R1          -0.00933
           R2           0.00141   0.56971
           R3          -0.01678  -0.00599   0.02328
 ITU=  0  0
     Eigenvalues ---   -0.01642   0.03031   0.56978
 Eigenvectors required to have negative eigenvalues:
                          R1        R3        R2
   1                    0.92099   0.38958   0.00177
 RFO step:  Lambda0=4.421335570D-02 Lambda=-1.09789764D-02.
 Linear search not attempted -- option 19 set.
 Maximum step size (   0.300) exceeded in Quadratic search.
    -- Step size scaled by   0.302
 Iteration  1 RMS(Cart)=  0.09067735 RMS(Int)=  0.02386901
 Iteration  2 RMS(Cart)=  0.01941628 RMS(Int)=  0.00023615
 Iteration  3 RMS(Cart)=  0.00017114 RMS(Int)=  0.00000000
 Iteration  4 RMS(Cart)=  0.00000000 RMS(Int)=  0.00000000
 ClnCor:  largest displacement from symmetrization is 3.23D-15 for atom     3.
 Variable       Old X    -DE/DX   Delta X   Delta X   Delta X     New X
                                 (Linear)    (Quad)   (Total)
    R1        4.89564  -0.05579   0.00000   0.17796   0.17796   5.07361
    R2        1.82521   0.01508   0.00000   0.00994   0.00994   1.83516
    R3        5.14537  -0.00107   0.00000   0.24131   0.24131   5.38668
         Item               Value     Threshold  Converged?
 Maximum Force            0.055794     0.000450     NO 
 RMS     Force            0.033374     0.000300     NO 
 Maximum Displacement     0.108422     0.001800     NO 
 RMS     Displacement     0.103443     0.001200     NO 
 Predicted change in Energy= 9.864470D-03
 GradGradGradGradGradGradGradGradGradGradGradGradGradGradGradGradGradGrad

                          Input orientation:                          
 ---------------------------------------------------------------------
 Center     Atomic      Atomic             Coordinates (Angstroms)
 Number     Number       Type             X           Y           Z
 ---------------------------------------------------------------------
      1          8           0       -2.678267   -1.346366   -0.655651
      2         17           0       -1.890495    0.766062   -2.113529
      3          1           0       -3.532901   -1.339738   -1.116778
 ---------------------------------------------------------------------
                    Distance matrix (angstroms):
                    1          2          3
     1  O    0.000000
     2  Cl   2.684837   0.000000
     3  H    0.971124   2.850509   0.000000
 Stoichiometry    ClHO
 Framework group  CS[SG(ClHO)]
 Deg. of freedom     3
 Full point group                 CS      NOp   2
 Largest Abelian subgroup         CS      NOp   2
 Largest concise Abelian subgroup C1      NOp   1
                         Standard orientation:                         
 ---------------------------------------------------------------------
 Center     Atomic      Atomic             Coordinates (Angstroms)
 Number     Number       Type             X           Y           Z
 ---------------------------------------------------------------------
      1          8           0        0.037350    1.755657   -0.000000
      2         17           0        0.037350   -0.929180    0.000000
      3          1           0       -0.933761    1.750810   -0.000000
 ---------------------------------------------------------------------
 Rotational constants (GHZ):         565.3778934           6.1268775           6.0611936
 Standard basis: SVP (5D, 7F)
 There are    29 symmetry adapted cartesian basis functions of A'  symmetry.
 There are    10 symmetry adapted cartesian basis functions of A"  symmetry.
 There are    27 symmetry adapted basis functions of A'  symmetry.
 There are    10 symmetry adapted basis functions of A"  symmetry.
    37 basis functions,    69 primitive gaussians,    39 cartesian basis functions
    13 alpha electrons       13 beta electrons
       nuclear repulsion energy        34.3206217859 Hartrees.
 NAtoms=    3 NActive=    3 NUniq=    3 SFac= 1.00D+00 NAtFMM=   60 NAOKFM=F Big=F
 Integral buffers will be    131072 words long.
 Raffenetti 2 integral format.
 Two-electron integral symmetry is turned on.
 Nuclear repulsion after empirical dispersion term =       34.3191027613 Hartrees.
 One-electron integrals computed using PRISM.
 NBasis=    37 RedAO= T EigKep=  5.45D-02  NBF=    27    10
 NBsUse=    37 1.00D-06 EigRej= -1.00D+00 NBFU=    27    10
 Initial guess from the checkpoint file:  "/tmp/Gau-7142.chk"
 B after Tr=     0.000000   -0.000000    0.000000
         Rot=    0.999999    0.000000   -0.000000    0.001028 Ang=   0.12 deg.
 Initial guess orbital symmetries:
       Occupied  (A') (A') (A') (A') (A') (A") (A') (A') (A') (A')
                 (A") (A') (A")
       Virtual   (A') (A') (A') (A') (A') (A") (A') (A") (A') (A')
                 (A") (A') (A') (A") (A') (A') (A") (A') (A') (A")
                 (A') (A') (A") (A')
 ExpMin= 1.22D-01 ExpMax= 1.04D+04 ExpMxC= 1.57D+03 IAcc=2 IRadAn=         4 AccDes= 0.00D+00
 Harris functional with IExCor=  402 and IRadAn=       4 diagonalized for initial guess.
 HarFok:  IExCor=  402 AccDes= 0.00D+00 IRadAn=         4 IDoV= 1 UseB2=F ITyADJ=14
 ICtDFT=  3500011 ScaDFX=  1.000000  1.000000  1.000000  1.000000
 FoFCou: FMM=F IPFlag=           0 FMFlag=      100000 FMFlg1=           0
         NFxFlg=           0 DoJE=T BraDBF=F KetDBF=T FulRan=T
         wScrn=  0.000000 ICntrl=       500 IOpCl=  0 I1Cent=   200000004 NGrid=           0
         NMat0=    1 NMatS0=      1 NMatT0=    0 NMatD0=    1 NMtDS0=    0 NMtDT0=    0
 Petite list used in FoFCou.
 Keep R1 ints in memory in symmetry-blocked form, NReq=7153137.
 Requested convergence on RMS density matrix=1.00D-08 within 128 cycles.
 Requested convergence on MAX density matrix=1.00D-06.
 Requested convergence on             energy=1.00D-06.
 No special actions if energy rises.
 Integral accuracy reduced to 1.0D-05 until final iterations.
 Initial convergence to 1.0D-05 achieved.  Increase integral accuracy.
 SCF Done:  E(RB3LYP) =  -535.660072512     A.U. after   14 cycles
            NFock= 14  Conv=0.63D-08     -V/T= 2.0031
 Calling FoFJK, ICntrl=      2127 FMM=F ISym2X=1 I1Cent= 0 IOpClX= 0 NMat=1 NMatS=1 NMatT=0.
 ***** Axes restored to original set *****
 -------------------------------------------------------------------
 Center     Atomic                   Forces (Hartrees/Bohr)
 Number     Number              X              Y              Z
 -------------------------------------------------------------------
      1        8           0.024003192    0.039264489   -0.022112045
      2       17          -0.016341291   -0.041482437    0.028164579
      3        1          -0.007661900    0.002217949   -0.006052534
 -------------------------------------------------------------------
 Cartesian Forces:  Max     0.041482437 RMS     0.024693964

 GradGradGradGradGradGradGradGradGradGradGradGradGradGradGradGradGradGrad
 Berny optimization.
 FormGI is forming the generalized inverse of G from B-inverse, IUseBI=4.
 Internal  Forces:  Max     0.049996379 RMS     0.029555430
 Search for a saddle point.
 Step number   3 out of a maximum of  100
 All quantities printed in internal units (Hartrees-Bohrs-Radians)
 Swapping is turned off.
 Update second derivatives using D2CorX and points    1    2    3
 The second derivative matrix:
                          R1        R2        R3
           R1          -0.00928
           R2           0.00141   0.56971
           R3          -0.01724  -0.00599   0.02054
 ITU=  0  0  0
     Eigenvalues ---   -0.01717   0.02835   0.56978
 Eigenvectors required to have negative eigenvalues:
                          R1        R3        R2
   1                    0.90933   0.41607   0.00206
 RFO step:  Lambda0=3.884959570D-02 Lambda=-9.10967697D-03.
 Linear search not attempted -- option 19 set.
 Maximum step size (   0.300) exceeded in Quadratic search.
    -- Step size scaled by   0.311
 Iteration  1 RMS(Cart)=  0.08958193 RMS(Int)=  0.02628523
 Iteration  2 RMS(Cart)=  0.02153441 RMS(Int)=  0.00029168
 Iteration  3 RMS(Cart)=  0.00021323 RMS(Int)=  0.00000001
 Iteration  4 RMS(Cart)=  0.00000000 RMS(Int)=  0.00000000
 ClnCor:  largest displacement from symmetrization is 1.33D-15 for atom     3.
 Variable       Old X    -DE/DX   Delta X   Delta X   Delta X     New X
                                 (Linear)    (Quad)   (Total)
    R1        5.07361  -0.05000   0.00000   0.17226   0.17226   5.24587
    R2        1.83516   0.01061   0.00000   0.00786   0.00786   1.84302
    R3        5.38668  -0.00290   0.00000   0.24549   0.24549   5.63217
         Item               Value     Threshold  Converged?
 Maximum Force            0.049996     0.000450     NO 
 RMS     Force            0.029555     0.000300     NO 
 Maximum Displacement     0.107878     0.001800     NO 
 RMS     Displacement     0.104265     0.001200     NO 
 Predicted change in Energy= 9.002089D-03
 GradGradGradGradGradGradGradGradGradGradGradGradGradGradGradGradGradGrad

                          Input orientation:                          
 ---------------------------------------------------------------------
 Center     Atomic      Atomic             Coordinates (Angstroms)
 Number     Number       Type             X           Y           Z
 ---------------------------------------------------------------------
      1          8           0       -2.690647   -1.360816   -0.649402
      2         17           0       -1.851977    0.823149   -2.143749
      3          1           0       -3.559039   -1.382375   -1.092806
 ---------------------------------------------------------------------
                    Distance matrix (angstroms):
                    1          2          3
     1  O    0.000000
     2  Cl   2.775994   0.000000
     3  H    0.975282   2.980415   0.000000
 Stoichiometry    ClHO
 Framework group  CS[SG(ClHO)]
 Deg. of freedom     3
 Full point group                 CS      NOp   2
 Largest Abelian subgroup         CS      NOp   2
 Largest concise Abelian subgroup C1      NOp   1
                         Standard orientation:                         
 ---------------------------------------------------------------------
 Center     Atomic      Atomic             Coordinates (Angstroms)
 Number     Number       Type             X           Y           Z
 ---------------------------------------------------------------------
      1          8           0        0.037478    1.813511   -0.000000
      2         17           0        0.037478   -0.962484    0.000000
      3          1           0       -0.936958    1.854137   -0.000000
 ---------------------------------------------------------------------
 Rotational constants (GHZ):         562.6272765           5.7198891           5.6623237
 Standard basis: SVP (5D, 7F)
 There are    29 symmetry adapted cartesian basis functions of A'  symmetry.
 There are    10 symmetry adapted cartesian basis functions of A"  symmetry.
 There are    27 symmetry adapted basis functions of A'  symmetry.
 There are    10 symmetry adapted basis functions of A"  symmetry.
    37 basis functions,    69 primitive gaussians,    39 cartesian basis functions
    13 alpha electrons       13 beta electrons
       nuclear repulsion energy        33.2842483401 Hartrees.
 NAtoms=    3 NActive=    3 NUniq=    3 SFac= 1.00D+00 NAtFMM=   60 NAOKFM=F Big=F
 Integral buffers will be    131072 words long.
 Raffenetti 2 integral format.
 Two-electron integral symmetry is turned on.
 Nuclear repulsion after empirical dispersion term =       33.2827938372 Hartrees.
 One-electron integrals computed using PRISM.
 NBasis=    37 RedAO= T EigKep=  5.51D-02  NBF=    27    10
 NBsUse=    37 1.00D-06 EigRej= -1.00D+00 NBFU=    27    10
 Initial guess from the checkpoint file:  "/tmp/Gau-7142.chk"
 B after Tr=     0.000000    0.000000    0.000000
         Rot=    0.999999    0.000000   -0.000000    0.001054 Ang=   0.12 deg.
 Initial guess orbital symmetries:
       Occupied  (A') (A') (A') (A') (A') (A") (A') (A') (A') (A')
                 (A") (A') (A")
       Virtual   (A') (A') (A') (A') (A') (A") (A') (A") (A') (A')
                 (A") (A') (A') (A") (A') (A') (A") (A') (A') (A")
                 (A') (A') (A") (A')
 ExpMin= 1.22D-01 ExpMax= 1.04D+04 ExpMxC= 1.57D+03 IAcc=2 IRadAn=         4 AccDes= 0.00D+00
 Harris functional with IExCor=  402 and IRadAn=       4 diagonalized for initial guess.
 HarFok:  IExCor=  402 AccDes= 0.00D+00 IRadAn=         4 IDoV= 1 UseB2=F ITyADJ=14
 ICtDFT=  3500011 ScaDFX=  1.000000  1.000000  1.000000  1.000000
 FoFCou: FMM=F IPFlag=           0 FMFlag=      100000 FMFlg1=           0
         NFxFlg=           0 DoJE=T BraDBF=F KetDBF=T FulRan=T
         wScrn=  0.000000 ICntrl=       500 IOpCl=  0 I1Cent=   200000004 NGrid=           0
         NMat0=    1 NMatS0=      1 NMatT0=    0 NMatD0=    1 NMtDS0=    0 NMtDT0=    0
 Petite list used in FoFCou.
 Keep R1 ints in memory in symmetry-blocked form, NReq=7153137.
 Requested convergence on RMS density matrix=1.00D-08 within 128 cycles.
 Requested convergence on MAX density matrix=1.00D-06.
 Requested convergence on             energy=1.00D-06.
 No special actions if energy rises.
 Integral accuracy reduced to 1.0D-05 until final iterations.
 Initial convergence to 1.0D-05 achieved.  Increase integral accuracy.
 SCF Done:  E(RB3LYP) =  -535.651126803     A.U. after   14 cycles
            NFock= 14  Conv=0.62D-08     -V/T= 2.0031
 Calling FoFJK, ICntrl=      2127 FMM=F ISym2X=1 I1Cent= 0 IOpClX= 0 NMat=1 NMatS=1 NMatT=0.
 ***** Axes restored to original set *****
 -------------------------------------------------------------------
 Center     Atomic                   Forces (Hartrees/Bohr)
 Number     Number              X              Y              Z
 -------------------------------------------------------------------
      1        8           0.019880204    0.035017599   -0.020533647
      2       17          -0.015854034   -0.038046510    0.025370317
      3        1          -0.004026170    0.003028911   -0.004836670
 -------------------------------------------------------------------
 Cartesian Forces:  Max     0.038046510 RMS     0.022197106

 GradGradGradGradGradGradGradGradGradGradGradGradGradGradGradGradGradGrad
 Berny optimization.
 FormGI is forming the generalized inverse of G from B-inverse, IUseBI=4.
 Internal  Forces:  Max     0.044305289 RMS     0.026043251
 Search for a saddle point.
 Step number   4 out of a maximum of  100
 All quantities printed in internal units (Hartrees-Bohrs-Radians)
 Swapping is turned off.
 Update second derivatives using D2CorX and points    2    3    4
 The second derivative matrix:
                          R1        R2        R3
           R1          -0.00881
           R2           0.00147   0.56970
           R3          -0.01705  -0.00578   0.01788
 ITU=  0  0  0  0
     Eigenvalues ---   -0.01712   0.02612   0.56977
 Eigenvectors required to have negative eigenvalues:
                          R1        R3        R2
   1                    0.89886   0.43823   0.00206
 RFO step:  Lambda0=3.400929167D-02 Lambda=-7.37320622D-03.
 Linear search not attempted -- option 19 set.
 Maximum step size (   0.300) exceeded in Quadratic search.
    -- Step size scaled by   0.319
 Iteration  1 RMS(Cart)=  0.08897451 RMS(Int)=  0.02767830
 Iteration  2 RMS(Cart)=  0.02287668 RMS(Int)=  0.00033104
 Iteration  3 RMS(Cart)=  0.00024481 RMS(Int)=  0.00000001
 Iteration  4 RMS(Cart)=  0.00000001 RMS(Int)=  0.00000000
 ClnCor:  largest displacement from symmetrization is 2.84D-15 for atom     3.
 Variable       Old X    -DE/DX   Delta X   Delta X   Delta X     New X
                                 (Linear)    (Quad)   (Total)
    R1        5.24587  -0.04431   0.00000   0.16885   0.16885   5.41472
    R2        1.84302   0.00729   0.00000   0.00613   0.00613   1.84914
    R3        5.63217  -0.00431   0.00000   0.24790   0.24790   5.88007
         Item               Value     Threshold  Converged?
 Maximum Force            0.044305     0.000450     NO 
 RMS     Force            0.026043     0.000300     NO 
 Maximum Displacement     0.107535     0.001800     NO 
 RMS     Displacement     0.104897     0.001200     NO 
 Predicted change in Energy= 8.218486D-03
 GradGradGradGradGradGradGradGradGradGradGradGradGradGradGradGradGradGrad

                          Input orientation:                          
 ---------------------------------------------------------------------
 Center     Atomic      Atomic             Coordinates (Angstroms)
 Number     Number       Type             X           Y           Z
 ---------------------------------------------------------------------
      1          8           0       -2.703825   -1.373787   -0.644893
      2         17           0       -1.813012    0.880054   -2.173571
      3          1           0       -3.584825   -1.426308   -1.067494
 ---------------------------------------------------------------------
                    Distance matrix (angstroms):
                    1          2          3
     1  O    0.000000
     2  Cl   2.865345   0.000000
     3  H    0.978524   3.111597   0.000000
 Stoichiometry    ClHO
 Framework group  CS[SG(ClHO)]
 Deg. of freedom     3
 Full point group                 CS      NOp   2
 Largest Abelian subgroup         CS      NOp   2
 Largest concise Abelian subgroup C1      NOp   1
                         Standard orientation:                         
 ---------------------------------------------------------------------
 Center     Atomic      Atomic             Coordinates (Angstroms)
 Number     Number       Type             X           Y           Z
 ---------------------------------------------------------------------
      1          8           0        0.037477    1.870043    0.000000
      2         17           0        0.037477   -0.995302   -0.000000
      3          1           0       -0.936923    1.959792    0.000000
 ---------------------------------------------------------------------
 Rotational constants (GHZ):         563.8117670           5.3578382           5.3074026
 Standard basis: SVP (5D, 7F)
 There are    29 symmetry adapted cartesian basis functions of A'  symmetry.
 There are    10 symmetry adapted cartesian basis functions of A"  symmetry.
 There are    27 symmetry adapted basis functions of A'  symmetry.
 There are    10 symmetry adapted basis functions of A"  symmetry.
    37 basis functions,    69 primitive gaussians,    39 cartesian basis functions
    13 alpha electrons       13 beta electrons
       nuclear repulsion energy        32.3341860477 Hartrees.
 NAtoms=    3 NActive=    3 NUniq=    3 SFac= 1.00D+00 NAtFMM=   60 NAOKFM=F Big=F
 Integral buffers will be    131072 words long.
 Raffenetti 2 integral format.
 Two-electron integral symmetry is turned on.
 Nuclear repulsion after empirical dispersion term =       32.3328027956 Hartrees.
 One-electron integrals computed using PRISM.
 NBasis=    37 RedAO= T EigKep=  5.55D-02  NBF=    27    10
 NBsUse=    37 1.00D-06 EigRej= -1.00D+00 NBFU=    27    10
 Initial guess from the checkpoint file:  "/tmp/Gau-7142.chk"
 B after Tr=     0.000000   -0.000000   -0.000000
         Rot=    0.999999    0.000000   -0.000000    0.001074 Ang=   0.12 deg.
 Initial guess orbital symmetries:
       Occupied  (A') (A') (A') (A') (A') (A") (A') (A') (A') (A')
                 (A") (A') (A")
       Virtual   (A') (A') (A') (A') (A') (A") (A') (A") (A') (A')
                 (A") (A') (A') (A") (A') (A') (A") (A') (A') (A")
                 (A') (A') (A") (A')
 ExpMin= 1.22D-01 ExpMax= 1.04D+04 ExpMxC= 1.57D+03 IAcc=2 IRadAn=         4 AccDes= 0.00D+00
 Harris functional with IExCor=  402 and IRadAn=       4 diagonalized for initial guess.
 HarFok:  IExCor=  402 AccDes= 0.00D+00 IRadAn=         4 IDoV= 1 UseB2=F ITyADJ=14
 ICtDFT=  3500011 ScaDFX=  1.000000  1.000000  1.000000  1.000000
 FoFCou: FMM=F IPFlag=           0 FMFlag=      100000 FMFlg1=           0
         NFxFlg=           0 DoJE=T BraDBF=F KetDBF=T FulRan=T
         wScrn=  0.000000 ICntrl=       500 IOpCl=  0 I1Cent=   200000004 NGrid=           0
         NMat0=    1 NMatS0=      1 NMatT0=    0 NMatD0=    1 NMtDS0=    0 NMtDT0=    0
 Petite list used in FoFCou.
 Keep R1 ints in memory in symmetry-blocked form, NReq=7153137.
 Requested convergence on RMS density matrix=1.00D-08 within 128 cycles.
 Requested convergence on MAX density matrix=1.00D-06.
 Requested convergence on             energy=1.00D-06.
 No special actions if energy rises.
 Integral accuracy reduced to 1.0D-05 until final iterations.
 Initial convergence to 1.0D-05 achieved.  Increase integral accuracy.
 SCF Done:  E(RB3LYP) =  -535.642941433     A.U. after   16 cycles
            NFock= 16  Conv=0.62D-09     -V/T= 2.0030
 Calling FoFJK, ICntrl=      2127 FMM=F ISym2X=1 I1Cent= 0 IOpClX= 0 NMat=1 NMatS=1 NMatT=0.
 ***** Axes restored to original set *****
 -------------------------------------------------------------------
 Center     Atomic                   Forces (Hartrees/Bohr)
 Number     Number              X              Y              Z
 -------------------------------------------------------------------
      1        8           0.016472721    0.030833073   -0.018629551
      2       17          -0.015127423   -0.034533548    0.022635083
      3        1          -0.001345298    0.003700475   -0.004005533
 -------------------------------------------------------------------
 Cartesian Forces:  Max     0.034533548 RMS     0.019816908

 GradGradGradGradGradGradGradGradGradGradGradGradGradGradGradGradGradGrad
 Berny optimization.
 FormGI is forming the generalized inverse of G from B-inverse, IUseBI=4.
 Internal  Forces:  Max     0.038865843 RMS     0.022824683
 Search for a saddle point.
 Step number   5 out of a maximum of  100
 All quantities printed in internal units (Hartrees-Bohrs-Radians)
 Swapping is turned off.
 Update second derivatives using D2CorX and points    3    4    5
 The second derivative matrix:
                          R1        R2        R3
           R1          -0.00797
           R2           0.00159   0.56968
           R3          -0.01656  -0.00540   0.01558
 ITU=  0  0  0  0
     Eigenvalues ---   -0.01651   0.02407   0.56974
 Eigenvectors required to have negative eigenvalues:
                          R1        R3        R2
   1                    0.88859   0.45869   0.00182
 RFO step:  Lambda0=2.963461807D-02 Lambda=-5.80765585D-03.
 Linear search not attempted -- option 19 set.
 Maximum step size (   0.300) exceeded in Quadratic search.
    -- Step size scaled by   0.328
 Iteration  1 RMS(Cart)=  0.08877454 RMS(Int)=  0.02818477
 Iteration  2 RMS(Cart)=  0.02354059 RMS(Int)=  0.00035310
 Iteration  3 RMS(Cart)=  0.00026487 RMS(Int)=  0.00000001
 Iteration  4 RMS(Cart)=  0.00000001 RMS(Int)=  0.00000000
 ClnCor:  largest displacement from symmetrization is 4.05D-15 for atom     3.
 Variable       Old X    -DE/DX   Delta X   Delta X   Delta X     New X
                                 (Linear)    (Quad)   (Total)
    R1        5.41472  -0.03887   0.00000   0.16760   0.16760   5.58232
    R2        1.84914   0.00488   0.00000   0.00468   0.00468   1.85383
    R3        5.88007  -0.00535   0.00000   0.24877   0.24877   6.12884
         Item               Value     Threshold  Converged?
 Maximum Force            0.038866     0.000450     NO 
 RMS     Force            0.022825     0.000300     NO 
 Maximum Displacement     0.107401     0.001800     NO 
 RMS     Displacement     0.105277     0.001200     NO 
 Predicted change in Energy= 7.502230D-03
 GradGradGradGradGradGradGradGradGradGradGradGradGradGradGradGradGradGrad

                          Input orientation:                          
 ---------------------------------------------------------------------
 Center     Atomic      Atomic             Coordinates (Angstroms)
 Number     Number       Type             X           Y           Z
 ---------------------------------------------------------------------
      1          8           0       -2.717992   -1.386052   -0.641538
      2         17           0       -1.773811    0.936887   -2.203203
      3          1           0       -3.609860   -1.470877   -1.041217
 ---------------------------------------------------------------------
                    Distance matrix (angstroms):
                    1          2          3
     1  O    0.000000
     2  Cl   2.954035   0.000000
     3  H    0.981002   3.243242   0.000000
 Stoichiometry    ClHO
 Framework group  CS[SG(ClHO)]
 Deg. of freedom     3
 Full point group                 CS      NOp   2
 Largest Abelian subgroup         CS      NOp   2
 Largest concise Abelian subgroup C1      NOp   1
                         Standard orientation:                         
 ---------------------------------------------------------------------
 Center     Atomic      Atomic             Coordinates (Angstroms)
 Number     Number       Type             X           Y           Z
 ---------------------------------------------------------------------
      1          8           0        0.037342    1.926082   -0.000000
      2         17           0        0.037342   -1.027953    0.000000
      3          1           0       -0.933551    2.066555   -0.000000
 ---------------------------------------------------------------------
 Rotational constants (GHZ):         569.0364765           5.0308112           4.9867239
 Standard basis: SVP (5D, 7F)
 There are    29 symmetry adapted cartesian basis functions of A'  symmetry.
 There are    10 symmetry adapted cartesian basis functions of A"  symmetry.
 There are    27 symmetry adapted basis functions of A'  symmetry.
 There are    10 symmetry adapted basis functions of A"  symmetry.
    37 basis functions,    69 primitive gaussians,    39 cartesian basis functions
    13 alpha electrons       13 beta electrons
       nuclear repulsion energy        31.4518152632 Hartrees.
 NAtoms=    3 NActive=    3 NUniq=    3 SFac= 1.00D+00 NAtFMM=   60 NAOKFM=F Big=F
 Integral buffers will be    131072 words long.
 Raffenetti 2 integral format.
 Two-electron integral symmetry is turned on.
 Nuclear repulsion after empirical dispersion term =       31.4505082048 Hartrees.
 One-electron integrals computed using PRISM.
 NBasis=    37 RedAO= T EigKep=  5.58D-02  NBF=    27    10
 NBsUse=    37 1.00D-06 EigRej= -1.00D+00 NBFU=    27    10
 Initial guess from the checkpoint file:  "/tmp/Gau-7142.chk"
 B after Tr=    -0.000000    0.000000   -0.000000
         Rot=    0.999999   -0.000000    0.000000    0.001084 Ang=   0.12 deg.
 Initial guess orbital symmetries:
       Occupied  (A') (A') (A') (A') (A') (A") (A') (A') (A') (A')
                 (A") (A') (A")
       Virtual   (A') (A') (A') (A') (A') (A") (A') (A") (A') (A')
                 (A') (A") (A') (A") (A') (A') (A") (A') (A') (A")
                 (A') (A') (A") (A')
 ExpMin= 1.22D-01 ExpMax= 1.04D+04 ExpMxC= 1.57D+03 IAcc=2 IRadAn=         4 AccDes= 0.00D+00
 Harris functional with IExCor=  402 and IRadAn=       4 diagonalized for initial guess.
 HarFok:  IExCor=  402 AccDes= 0.00D+00 IRadAn=         4 IDoV= 1 UseB2=F ITyADJ=14
 ICtDFT=  3500011 ScaDFX=  1.000000  1.000000  1.000000  1.000000
 FoFCou: FMM=F IPFlag=           0 FMFlag=      100000 FMFlg1=           0
         NFxFlg=           0 DoJE=T BraDBF=F KetDBF=T FulRan=T
         wScrn=  0.000000 ICntrl=       500 IOpCl=  0 I1Cent=   200000004 NGrid=           0
         NMat0=    1 NMatS0=      1 NMatT0=    0 NMatD0=    1 NMtDS0=    0 NMtDT0=    0
 Petite list used in FoFCou.
 Keep R1 ints in memory in symmetry-blocked form, NReq=7153137.
 Requested convergence on RMS density matrix=1.00D-08 within 128 cycles.
 Requested convergence on MAX density matrix=1.00D-06.
 Requested convergence on             energy=1.00D-06.
 No special actions if energy rises.
 Integral accuracy reduced to 1.0D-05 until final iterations.
 Initial convergence to 1.0D-05 achieved.  Increase integral accuracy.
 SCF Done:  E(RB3LYP) =  -535.635453139     A.U. after   15 cycles
            NFock= 15  Conv=0.82D-08     -V/T= 2.0030
 Calling FoFJK, ICntrl=      2127 FMM=F ISym2X=1 I1Cent= 0 IOpClX= 0 NMat=1 NMatS=1 NMatT=0.
 ***** Axes restored to original set *****
 -------------------------------------------------------------------
 Center     Atomic                   Forces (Hartrees/Bohr)
 Number     Number              X              Y              Z
 -------------------------------------------------------------------
      1        8           0.013648710    0.026844694   -0.016588991
      2       17          -0.014226985   -0.031065543    0.020032399
      3        1           0.000578276    0.004220849   -0.003443408
 -------------------------------------------------------------------
 Cartesian Forces:  Max     0.031065543 RMS     0.017578075

 GradGradGradGradGradGradGradGradGradGradGradGradGradGradGradGradGradGrad
 Berny optimization.
 FormGI is forming the generalized inverse of G from B-inverse, IUseBI=4.
 Internal  Forces:  Max     0.033793385 RMS     0.019903173
 Search for a saddle point.
 Step number   6 out of a maximum of  100
 All quantities printed in internal units (Hartrees-Bohrs-Radians)
 Swapping is turned off.
 Second derivative matrix not updated -- analytic derivatives used.
 The second derivative matrix:
                          R1        R2        R3
           R1          -0.00797
           R2           0.00159   0.56968
           R3          -0.01656  -0.00540   0.01558
 ITU=  0  0  0  0
     Eigenvalues ---   -0.01651   0.02407   0.56974
 Eigenvectors required to have negative eigenvalues:
                          R1        R3        R2
   1                   -0.88859  -0.45869  -0.00182
 RFO step:  Lambda0=2.556641671D-02 Lambda=-3.72748997D-03.
 Linear search not attempted -- option 19 set.
 Maximum step size (   0.300) exceeded in Quadratic search.
    -- Step size scaled by   0.348
 Iteration  1 RMS(Cart)=  0.09157549 RMS(Int)=  0.02178629
 Iteration  2 RMS(Cart)=  0.01835806 RMS(Int)=  0.00021639
 Iteration  3 RMS(Cart)=  0.00016412 RMS(Int)=  0.00000000
 Iteration  4 RMS(Cart)=  0.00000000 RMS(Int)=  0.00000000
 ClnCor:  largest displacement from symmetrization is 2.22D-15 for atom     1.
 Variable       Old X    -DE/DX   Delta X   Delta X   Delta X     New X
                                 (Linear)    (Quad)   (Total)
    R1        5.58232  -0.03379   0.00000   0.18298   0.18298   5.76529
    R2        1.85383   0.00313   0.00000   0.00366   0.00366   1.85749
    R3        6.12884  -0.00605   0.00000   0.23771   0.23771   6.36655
         Item               Value     Threshold  Converged?
 Maximum Force            0.033793     0.000450     NO 
 RMS     Force            0.019903     0.000300     NO 
 Maximum Displacement     0.108782     0.001800     NO 
 RMS     Displacement     0.103190     0.001200     NO 
 Predicted change in Energy= 7.197237D-03
 GradGradGradGradGradGradGradGradGradGradGradGradGradGradGradGradGradGrad

                          Input orientation:                          
 ---------------------------------------------------------------------
 Center     Atomic      Atomic             Coordinates (Angstroms)
 Number     Number       Type             X           Y           Z
 ---------------------------------------------------------------------
      1          8           0       -2.733505   -1.403867   -0.633968
      2         17           0       -1.736047    0.994452   -2.234250
      3          1           0       -3.632110   -1.510627   -1.017739
 ---------------------------------------------------------------------
                    Distance matrix (angstroms):
                    1          2          3
     1  O    0.000000
     2  Cl   3.050862   0.000000
     3  H    0.982940   3.369032   0.000000
 Stoichiometry    ClHO
 Framework group  CS[SG(ClHO)]
 Deg. of freedom     3
 Full point group                 CS      NOp   2
 Largest Abelian subgroup         CS      NOp   2
 Largest concise Abelian subgroup C1      NOp   1
                         Standard orientation:                         
 ---------------------------------------------------------------------
 Center     Atomic      Atomic             Coordinates (Angstroms)
 Number     Number       Type             X           Y           Z
 ---------------------------------------------------------------------
      1          8           0        0.037191    1.988009   -0.000000
      2         17           0        0.037191   -1.062853    0.000000
      3          1           0       -0.929787    2.164426    0.000000
 ---------------------------------------------------------------------
 Rotational constants (GHZ):         574.3887607           4.7105007           4.6721846
 Standard basis: SVP (5D, 7F)
 There are    29 symmetry adapted cartesian basis functions of A'  symmetry.
 There are    10 symmetry adapted cartesian basis functions of A"  symmetry.
 There are    27 symmetry adapted basis functions of A'  symmetry.
 There are    10 symmetry adapted basis functions of A"  symmetry.
    37 basis functions,    69 primitive gaussians,    39 cartesian basis functions
    13 alpha electrons       13 beta electrons
       nuclear repulsion energy        30.5665301737 Hartrees.
 NAtoms=    3 NActive=    3 NUniq=    3 SFac= 1.00D+00 NAtFMM=   60 NAOKFM=F Big=F
 Integral buffers will be    131072 words long.
 Raffenetti 2 integral format.
 Two-electron integral symmetry is turned on.
 Nuclear repulsion after empirical dispersion term =       30.5653042317 Hartrees.
 One-electron integrals computed using PRISM.
 NBasis=    37 RedAO= T EigKep=  5.61D-02  NBF=    27    10
 NBsUse=    37 1.00D-06 EigRej= -1.00D+00 NBFU=    27    10
 Initial guess from the checkpoint file:  "/tmp/Gau-7142.chk"
 B after Tr=    -0.000000   -0.000000    0.000000
         Rot=    1.000000    0.000000   -0.000000    0.000945 Ang=   0.11 deg.
 Initial guess orbital symmetries:
       Occupied  (A') (A') (A') (A') (A') (A") (A') (A') (A') (A')
                 (A") (A') (A")
       Virtual   (A') (A') (A') (A') (A') (A") (A') (A") (A') (A')
                 (A') (A") (A') (A") (A') (A') (A") (A') (A') (A")
                 (A') (A') (A") (A')
 ExpMin= 1.22D-01 ExpMax= 1.04D+04 ExpMxC= 1.57D+03 IAcc=2 IRadAn=         4 AccDes= 0.00D+00
 Harris functional with IExCor=  402 and IRadAn=       4 diagonalized for initial guess.
 HarFok:  IExCor=  402 AccDes= 0.00D+00 IRadAn=         4 IDoV= 1 UseB2=F ITyADJ=14
 ICtDFT=  3500011 ScaDFX=  1.000000  1.000000  1.000000  1.000000
 FoFCou: FMM=F IPFlag=           0 FMFlag=      100000 FMFlg1=           0
         NFxFlg=           0 DoJE=T BraDBF=F KetDBF=T FulRan=T
         wScrn=  0.000000 ICntrl=       500 IOpCl=  0 I1Cent=   200000004 NGrid=           0
         NMat0=    1 NMatS0=      1 NMatT0=    0 NMatD0=    1 NMtDS0=    0 NMtDT0=    0
 Petite list used in FoFCou.
 Keep R1 ints in memory in symmetry-blocked form, NReq=7153137.
 Requested convergence on RMS density matrix=1.00D-08 within 128 cycles.
 Requested convergence on MAX density matrix=1.00D-06.
 Requested convergence on             energy=1.00D-06.
 No special actions if energy rises.
 Integral accuracy reduced to 1.0D-05 until final iterations.
 Initial convergence to 1.0D-05 achieved.  Increase integral accuracy.
 SCF Done:  E(RB3LYP) =  -535.628248803     A.U. after   16 cycles
            NFock= 16  Conv=0.38D-08     -V/T= 2.0029
 Calling FoFJK, ICntrl=      2127 FMM=F ISym2X=1 I1Cent= 0 IOpClX= 0 NMat=1 NMatS=1 NMatT=0.
 ***** Axes restored to original set *****
 -------------------------------------------------------------------
 Center     Atomic                   Forces (Hartrees/Bohr)
 Number     Number              X              Y              Z
 -------------------------------------------------------------------
      1        8           0.010998568    0.023215951   -0.014775456
      2       17          -0.013013727   -0.027575777    0.017577003
      3        1           0.002015159    0.004359826   -0.002801547
 -------------------------------------------------------------------
 Cartesian Forces:  Max     0.027575777 RMS     0.015448525

 GradGradGradGradGradGradGradGradGradGradGradGradGradGradGradGradGradGrad
 Berny optimization.
 FormGI is forming the generalized inverse of G from B-inverse, IUseBI=4.
 Internal  Forces:  Max     0.029319007 RMS     0.017311590
 Search for a saddle point.
 Step number   7 out of a maximum of  100
 All quantities printed in internal units (Hartrees-Bohrs-Radians)
 Swapping is turned off.
 Update second derivatives using D2CorX and points    5    6    7
 The second derivative matrix:
                          R1        R2        R3
           R1          -0.00442
           R2           0.00264   0.56976
           R3          -0.01546  -0.00413   0.01213
 ITU=  0  0  0  0
     Eigenvalues ---   -0.01368   0.02134   0.56980
 Eigenvectors required to have negative eigenvalues:
                          R1        R3        R2
   1                   -0.85790  -0.51382   0.00024
 RFO step:  Lambda0=2.225661150D-02 Lambda=-3.85663424D-03.
 Linear search not attempted -- option 19 set.
 Maximum step size (   0.300) exceeded in Quadratic search.
    -- Step size scaled by   0.341
 Iteration  1 RMS(Cart)=  0.08794516 RMS(Int)=  0.03036997
 Iteration  2 RMS(Cart)=  0.02595287 RMS(Int)=  0.00043697
 Iteration  3 RMS(Cart)=  0.00033838 RMS(Int)=  0.00000002
 Iteration  4 RMS(Cart)=  0.00000002 RMS(Int)=  0.00000000
 ClnCor:  largest displacement from symmetrization is 4.17D-15 for atom     1.
 Variable       Old X    -DE/DX   Delta X   Delta X   Delta X     New X
                                 (Linear)    (Quad)   (Total)
    R1        5.76529  -0.02932   0.00000   0.16190   0.16190   5.92720
    R2        1.85749   0.00154   0.00000   0.00199   0.00199   1.85948
    R3        6.36655  -0.00609   0.00000   0.25255   0.25255   6.61910
         Item               Value     Threshold  Converged?
 Maximum Force            0.029319     0.000450     NO 
 RMS     Force            0.017312     0.000300     NO 
 Maximum Displacement     0.106767     0.001800     NO 
 RMS     Displacement     0.106744     0.001200     NO 
 Predicted change in Energy= 5.978278D-03
 GradGradGradGradGradGradGradGradGradGradGradGradGradGradGradGradGradGrad

                          Input orientation:                          
 ---------------------------------------------------------------------
 Center     Atomic      Atomic             Coordinates (Angstroms)
 Number     Number       Type             X           Y           Z
 ---------------------------------------------------------------------
      1          8           0       -2.749546   -1.413527   -0.633927
      2         17           0       -1.696159    1.050951   -2.263218
      3          1           0       -3.655957   -1.557466   -0.988812
 ---------------------------------------------------------------------
                    Distance matrix (angstroms):
                    1          2          3
     1  O    0.000000
     2  Cl   3.136537   0.000000
     3  H    0.983993   3.502678   0.000000
 Stoichiometry    ClHO
 Framework group  CS[SG(ClHO)]
 Deg. of freedom     3
 Full point group                 CS      NOp   2
 Largest Abelian subgroup         CS      NOp   2
 Largest concise Abelian subgroup C1      NOp   1
                         Standard orientation:                         
 ---------------------------------------------------------------------
 Center     Atomic      Atomic             Coordinates (Angstroms)
 Number     Number       Type             X           Y           Z
 ---------------------------------------------------------------------
      1          8           0        0.036768    2.041845   -0.000000
      2         17           0        0.036768   -1.094692    0.000000
      3          1           0       -0.919201    2.275008   -0.000000
 ---------------------------------------------------------------------
 Rotational constants (GHZ):         588.9374759           4.4472736           4.4139424
 Standard basis: SVP (5D, 7F)
 There are    29 symmetry adapted cartesian basis functions of A'  symmetry.
 There are    10 symmetry adapted cartesian basis functions of A"  symmetry.
 There are    27 symmetry adapted basis functions of A'  symmetry.
 There are    10 symmetry adapted basis functions of A"  symmetry.
    37 basis functions,    69 primitive gaussians,    39 cartesian basis functions
    13 alpha electrons       13 beta electrons
       nuclear repulsion energy        29.8156880835 Hartrees.
 NAtoms=    3 NActive=    3 NUniq=    3 SFac= 1.00D+00 NAtFMM=   60 NAOKFM=F Big=F
 Integral buffers will be    131072 words long.
 Raffenetti 2 integral format.
 Two-electron integral symmetry is turned on.
 Nuclear repulsion after empirical dispersion term =       29.8145414762 Hartrees.
 One-electron integrals computed using PRISM.
 NBasis=    37 RedAO= T EigKep=  5.62D-02  NBF=    27    10
 NBsUse=    37 1.00D-06 EigRej= -1.00D+00 NBFU=    27    10
 Initial guess from the checkpoint file:  "/tmp/Gau-7142.chk"
 B after Tr=     0.000000    0.000000    0.000000
         Rot=    0.999999    0.000000   -0.000000    0.001126 Ang=   0.13 deg.
 Initial guess orbital symmetries:
       Occupied  (A') (A') (A') (A') (A') (A") (A') (A') (A') (A')
                 (A") (A') (A")
       Virtual   (A') (A') (A') (A') (A') (A") (A') (A") (A') (A')
                 (A') (A") (A') (A") (A') (A') (A") (A') (A') (A")
                 (A') (A') (A") (A')
 ExpMin= 1.22D-01 ExpMax= 1.04D+04 ExpMxC= 1.57D+03 IAcc=2 IRadAn=         4 AccDes= 0.00D+00
 Harris functional with IExCor=  402 and IRadAn=       4 diagonalized for initial guess.
 HarFok:  IExCor=  402 AccDes= 0.00D+00 IRadAn=         4 IDoV= 1 UseB2=F ITyADJ=14
 ICtDFT=  3500011 ScaDFX=  1.000000  1.000000  1.000000  1.000000
 FoFCou: FMM=F IPFlag=           0 FMFlag=      100000 FMFlg1=           0
         NFxFlg=           0 DoJE=T BraDBF=F KetDBF=T FulRan=T
         wScrn=  0.000000 ICntrl=       500 IOpCl=  0 I1Cent=   200000004 NGrid=           0
         NMat0=    1 NMatS0=      1 NMatT0=    0 NMatD0=    1 NMtDS0=    0 NMtDT0=    0
 Petite list used in FoFCou.
 Keep R1 ints in memory in symmetry-blocked form, NReq=7153137.
 Requested convergence on RMS density matrix=1.00D-08 within 128 cycles.
 Requested convergence on MAX density matrix=1.00D-06.
 Requested convergence on             energy=1.00D-06.
 No special actions if energy rises.
 Integral accuracy reduced to 1.0D-05 until final iterations.
 Initial convergence to 1.0D-05 achieved.  Increase integral accuracy.
 SCF Done:  E(RB3LYP) =  -535.622260571     A.U. after   15 cycles
            NFock= 15  Conv=0.74D-08     -V/T= 2.0029
 Calling FoFJK, ICntrl=      2127 FMM=F ISym2X=1 I1Cent= 0 IOpClX= 0 NMat=1 NMatS=1 NMatT=0.
 ***** Axes restored to original set *****
 -------------------------------------------------------------------
 Center     Atomic                   Forces (Hartrees/Bohr)
 Number     Number              X              Y              Z
 -------------------------------------------------------------------
      1        8           0.009385996    0.019875053   -0.012665074
      2       17          -0.012058262   -0.024549348    0.015396098
      3        1           0.002672266    0.004674295   -0.002731024
 -------------------------------------------------------------------
 Cartesian Forces:  Max     0.024549348 RMS     0.013601794

 GradGradGradGradGradGradGradGradGradGradGradGradGradGradGradGradGradGrad
 Berny optimization.
 FormGI is forming the generalized inverse of G from B-inverse, IUseBI=4.
 Internal  Forces:  Max     0.025101713 RMS     0.014979715
 Search for a saddle point.
 Step number   8 out of a maximum of  100
 All quantities printed in internal units (Hartrees-Bohrs-Radians)
 Swapping is turned off.
 Update second derivatives using D2CorX and points    6    7    8
 The second derivative matrix:
                          R1        R2        R3
           R1          -0.00281
           R2           0.00262   0.56976
           R3          -0.01492  -0.00416   0.01115
 ITU=  0  0  0  0
     Eigenvalues ---   -0.01230   0.02060   0.56980
 Eigenvectors required to have negative eigenvalues:
                          R1        R3        R2
   1                   -0.84369  -0.53683  -0.00003
 RFO step:  Lambda0=1.926256482D-02 Lambda=-2.75361484D-03.
 Linear search not attempted -- option 19 set.
 Maximum step size (   0.300) exceeded in Quadratic search.
    -- Step size scaled by   0.352
 Iteration  1 RMS(Cart)=  0.08873030 RMS(Int)=  0.02846425
 Iteration  2 RMS(Cart)=  0.02471158 RMS(Int)=  0.00040082
 Iteration  3 RMS(Cart)=  0.00031759 RMS(Int)=  0.00000002
 Iteration  4 RMS(Cart)=  0.00000002 RMS(Int)=  0.00000000
 ClnCor:  largest displacement from symmetrization is 3.11D-15 for atom     3.
 Variable       Old X    -DE/DX   Delta X   Delta X   Delta X     New X
                                 (Linear)    (Quad)   (Total)
    R1        5.92720  -0.02510   0.00000   0.16693   0.16693   6.09413
    R2        1.85948   0.00104   0.00000   0.00168   0.00168   1.86116
    R3        6.61910  -0.00648   0.00000   0.24926   0.24926   6.86836
         Item               Value     Threshold  Converged?
 Maximum Force            0.025102     0.000450     NO 
 RMS     Force            0.014980     0.000300     NO 
 Maximum Displacement     0.107234     0.001800     NO 
 RMS     Displacement     0.106081     0.001200     NO 
 Predicted change in Energy= 5.490229D-03
 GradGradGradGradGradGradGradGradGradGradGradGradGradGradGradGradGradGrad

                          Input orientation:                          
 ---------------------------------------------------------------------
 Center     Atomic      Atomic             Coordinates (Angstroms)
 Number     Number       Type             X           Y           Z
 ---------------------------------------------------------------------
      1          8           0       -2.766706   -1.424785   -0.633062
      2         17           0       -1.656577    1.107697   -2.292569
      3          1           0       -3.678380   -1.602954   -0.960327
 ---------------------------------------------------------------------
                    Distance matrix (angstroms):
                    1          2          3
     1  O    0.000000
     2  Cl   3.224874   0.000000
     3  H    0.984884   3.634581   0.000000
 Stoichiometry    ClHO
 Framework group  CS[SG(ClHO)]
 Deg. of freedom     3
 Full point group                 CS      NOp   2
 Largest Abelian subgroup         CS      NOp   2
 Largest concise Abelian subgroup C1      NOp   1
                         Standard orientation:                         
 ---------------------------------------------------------------------
 Center     Atomic      Atomic             Coordinates (Angstroms)
 Number     Number       Type             X           Y           Z
 ---------------------------------------------------------------------
      1          8           0        0.036256    2.097597    0.000000
      2         17           0        0.036256   -1.127277   -0.000000
      3          1           0       -0.906388    2.382937    0.000000
 ---------------------------------------------------------------------
 Rotational constants (GHZ):         606.8203034           4.1992478           4.1703883
 Standard basis: SVP (5D, 7F)
 There are    29 symmetry adapted cartesian basis functions of A'  symmetry.
 There are    10 symmetry adapted cartesian basis functions of A"  symmetry.
 There are    27 symmetry adapted basis functions of A'  symmetry.
 There are    10 symmetry adapted basis functions of A"  symmetry.
    37 basis functions,    69 primitive gaussians,    39 cartesian basis functions
    13 alpha electrons       13 beta electrons
       nuclear repulsion energy        29.0900721414 Hartrees.
 NAtoms=    3 NActive=    3 NUniq=    3 SFac= 1.00D+00 NAtFMM=   60 NAOKFM=F Big=F
 Integral buffers will be    131072 words long.
 Raffenetti 2 integral format.
 Two-electron integral symmetry is turned on.
 Nuclear repulsion after empirical dispersion term =       29.0890044880 Hartrees.
 One-electron integrals computed using PRISM.
 NBasis=    37 RedAO= T EigKep=  5.63D-02  NBF=    27    10
 NBsUse=    37 1.00D-06 EigRej= -1.00D+00 NBFU=    27    10
 Initial guess from the checkpoint file:  "/tmp/Gau-7142.chk"
 B after Tr=    -0.000000    0.000000   -0.000000
         Rot=    0.999999   -0.000000    0.000000    0.001085 Ang=   0.12 deg.
 Initial guess orbital symmetries:
       Occupied  (A') (A') (A') (A') (A') (A") (A') (A') (A') (A")
                 (A') (A') (A")
       Virtual   (A') (A') (A') (A') (A') (A") (A') (A") (A') (A')
                 (A') (A") (A') (A") (A') (A') (A") (A') (A') (A")
                 (A') (A') (A") (A')
 ExpMin= 1.22D-01 ExpMax= 1.04D+04 ExpMxC= 1.57D+03 IAcc=2 IRadAn=         4 AccDes= 0.00D+00
 Harris functional with IExCor=  402 and IRadAn=       4 diagonalized for initial guess.
 HarFok:  IExCor=  402 AccDes= 0.00D+00 IRadAn=         4 IDoV= 1 UseB2=F ITyADJ=14
 ICtDFT=  3500011 ScaDFX=  1.000000  1.000000  1.000000  1.000000
 FoFCou: FMM=F IPFlag=           0 FMFlag=      100000 FMFlg1=           0
         NFxFlg=           0 DoJE=T BraDBF=F KetDBF=T FulRan=T
         wScrn=  0.000000 ICntrl=       500 IOpCl=  0 I1Cent=   200000004 NGrid=           0
         NMat0=    1 NMatS0=      1 NMatT0=    0 NMatD0=    1 NMtDS0=    0 NMtDT0=    0
 Petite list used in FoFCou.
 Keep R1 ints in memory in symmetry-blocked form, NReq=7153137.
 Requested convergence on RMS density matrix=1.00D-08 within 128 cycles.
 Requested convergence on MAX density matrix=1.00D-06.
 Requested convergence on             energy=1.00D-06.
 No special actions if energy rises.
 Integral accuracy reduced to 1.0D-05 until final iterations.
 Initial convergence to 1.0D-05 achieved.  Increase integral accuracy.
 SCF Done:  E(RB3LYP) =  -535.616756090     A.U. after   17 cycles
            NFock= 17  Conv=0.47D-08     -V/T= 2.0029
 Calling FoFJK, ICntrl=      2127 FMM=F ISym2X=1 I1Cent= 0 IOpClX= 0 NMat=1 NMatS=1 NMatT=0.
 ***** Axes restored to original set *****
 -------------------------------------------------------------------
 Center     Atomic                   Forces (Hartrees/Bohr)
 Number     Number              X              Y              Z
 -------------------------------------------------------------------
      1        8           0.007834479    0.016883020   -0.010832237
      2       17          -0.011031048   -0.021708358    0.013418225
      3        1           0.003196569    0.004825338   -0.002585988
 -------------------------------------------------------------------
 Cartesian Forces:  Max     0.021708358 RMS     0.011911375

 GradGradGradGradGradGradGradGradGradGradGradGradGradGradGradGradGradGrad
 Berny optimization.
 FormGI is forming the generalized inverse of G from B-inverse, IUseBI=4.
 Internal  Forces:  Max     0.021380853 RMS     0.012921507
 Search for a saddle point.
 Step number   9 out of a maximum of  100
 All quantities printed in internal units (Hartrees-Bohrs-Radians)
 Swapping is turned off.
 Update second derivatives using D2CorX and points    7    8    9
 The second derivative matrix:
                          R1        R2        R3
           R1          -0.00100
           R2           0.00303   0.56980
           R3          -0.01428  -0.00377   0.01004
 ITU=  0  0  0  0
     Eigenvalues ---   -0.01079   0.01978   0.56984
 Eigenvectors required to have negative eigenvalues:
                          R1        R3        R2
   1                   -0.82493  -0.56524   0.00064
 RFO step:  Lambda0=1.664220552D-02 Lambda=-2.02717625D-03.
 Linear search not attempted -- option 19 set.
 Maximum step size (   0.300) exceeded in Quadratic search.
    -- Step size scaled by   0.359
 Iteration  1 RMS(Cart)=  0.08903120 RMS(Int)=  0.02778990
 Iteration  2 RMS(Cart)=  0.02455115 RMS(Int)=  0.00040070
 Iteration  3 RMS(Cart)=  0.00032565 RMS(Int)=  0.00000003
 Iteration  4 RMS(Cart)=  0.00000002 RMS(Int)=  0.00000000
 ClnCor:  largest displacement from symmetrization is 4.40D-15 for atom     3.
 Variable       Old X    -DE/DX   Delta X   Delta X   Delta X     New X
                                 (Linear)    (Quad)   (Total)
    R1        6.09413  -0.02138   0.00000   0.16866   0.16866   6.26279
    R2        1.86116   0.00051   0.00000   0.00106   0.00106   1.86222
    R3        6.86836  -0.00659   0.00000   0.24810   0.24810   7.11646
         Item               Value     Threshold  Converged?
 Maximum Force            0.021381     0.000450     NO 
 RMS     Force            0.012922     0.000300     NO 
 Maximum Displacement     0.107341     0.001800     NO 
 RMS     Displacement     0.106052     0.001200     NO 
 Predicted change in Energy= 4.939129D-03
 GradGradGradGradGradGradGradGradGradGradGradGradGradGradGradGradGradGrad

                          Input orientation:                          
 ---------------------------------------------------------------------
 Center     Atomic      Atomic             Coordinates (Angstroms)
 Number     Number       Type             X           Y           Z
 ---------------------------------------------------------------------
      1          8           0       -2.784941   -1.436424   -0.632430
      2         17           0       -1.617008    1.164499   -2.321977
      3          1           0       -3.699714   -1.648117   -0.931550
 ---------------------------------------------------------------------
                    Distance matrix (angstroms):
                    1          2          3
     1  O    0.000000
     2  Cl   3.314127   0.000000
     3  H    0.985442   3.765868   0.000000
 Stoichiometry    ClHO
 Framework group  CS[SG(ClHO)]
 Deg. of freedom     3
 Full point group                 CS      NOp   2
 Largest Abelian subgroup         CS      NOp   2
 Largest concise Abelian subgroup C1      NOp   1
                         Standard orientation:                         
 ---------------------------------------------------------------------
 Center     Atomic      Atomic             Coordinates (Angstroms)
 Number     Number       Type             X           Y           Z
 ---------------------------------------------------------------------
      1          8           0        0.035630    2.154006    0.000000
      2         17           0        0.035630   -1.160122   -0.000000
      3          1           0       -0.890754    2.490025    0.000000
 ---------------------------------------------------------------------
 Rotational constants (GHZ):         629.3769348           3.9693616           3.9444845
 Standard basis: SVP (5D, 7F)
 There are    29 symmetry adapted cartesian basis functions of A'  symmetry.
 There are    10 symmetry adapted cartesian basis functions of A"  symmetry.
 There are    27 symmetry adapted basis functions of A'  symmetry.
 There are    10 symmetry adapted basis functions of A"  symmetry.
    37 basis functions,    69 primitive gaussians,    39 cartesian basis functions
    13 alpha electrons       13 beta electrons
       nuclear repulsion energy        28.4003365571 Hartrees.
[...]
 Linear search not attempted -- option 19 set.
 Iteration  1 RMS(Cart)=  0.00002671 RMS(Int)=  0.00000000
 Iteration  2 RMS(Cart)=  0.00000002 RMS(Int)=  0.00000000
 ClnCor:  largest displacement from symmetrization is 4.07D-15 for atom     3.
 Variable       Old X    -DE/DX   Delta X   Delta X   Delta X     New X
                                 (Linear)    (Quad)   (Total)
    R1       11.21604  -0.00047   0.00000   0.00000   0.00000  11.21604
    R2        1.85472   0.00001   0.00000   0.00000   0.00000   1.85472
    R3       13.06947  -0.00038   0.00000   0.00000   0.00000  13.06948
         Item               Value     Threshold  Converged?
 Maximum Force            0.000469     0.000450     NO 
 RMS     Force            0.000349     0.000300     NO 
 Maximum Displacement     0.000028     0.001800     YES
 RMS     Displacement     0.000027     0.001200     YES
 Predicted change in Energy= 1.447287D-09
 GradGradGradGradGradGradGradGradGradGradGradGradGradGradGradGradGradGrad

                          Input orientation:                          
 ---------------------------------------------------------------------
 Center     Atomic      Atomic             Coordinates (Angstroms)
 Number     Number       Type             X           Y           Z
 ---------------------------------------------------------------------
      1          8           0       -3.523029   -1.899707   -0.613826
      2         17           0       -0.604469    2.636224   -3.090680
      3          1           0       -3.974165   -2.656559   -0.181451
 ---------------------------------------------------------------------
                    Distance matrix (angstroms):
                    1          2          3
     1  O    0.000000
     2  Cl   5.935273   0.000000
     3  H    0.981477   6.916069   0.000000
 Stoichiometry    ClHO
 Framework group  CS[SG(ClHO)]
 Deg. of freedom     3
 Full point group                 CS      NOp   2
 Largest Abelian subgroup         CS      NOp   2
 Largest concise Abelian subgroup C1      NOp   1
                         Standard orientation:                         
 ---------------------------------------------------------------------
 Center     Atomic      Atomic             Coordinates (Angstroms)
 Number     Number       Type             X           Y           Z
 ---------------------------------------------------------------------
      1          8           0       -0.001517    3.843037    0.000000
      2         17           0       -0.001517   -2.092236   -0.000000
      3          1           0        0.037933    4.823721    0.000000
 ---------------------------------------------------------------------
 Rotational constants (GHZ):      350031.7215361           1.2270814           1.2270771
 Standard basis: SVP (5D, 7F)
 There are    29 symmetry adapted cartesian basis functions of A'  symmetry.
 There are    10 symmetry adapted cartesian basis functions of A"  symmetry.
 There are    27 symmetry adapted basis functions of A'  symmetry.
 There are    10 symmetry adapted basis functions of A"  symmetry.
    37 basis functions,    69 primitive gaussians,    39 cartesian basis functions
    13 alpha electrons       13 beta electrons
       nuclear repulsion energy        17.7395460732 Hartrees.
 NAtoms=    3 NActive=    3 NUniq=    3 SFac= 1.00D+00 NAtFMM=   60 NAOKFM=F Big=F
 Integral buffers will be    131072 words long.
 Raffenetti 2 integral format.
 Two-electron integral symmetry is turned on.
 Nuclear repulsion after empirical dispersion term =       17.7392720841 Hartrees.
 One-electron integrals computed using PRISM.
 NBasis=    37 RedAO= T EigKep=  5.59D-02  NBF=    27    10
 NBsUse=    37 1.00D-06 EigRej= -1.00D+00 NBFU=    27    10
 Initial guess from the checkpoint file:  "/tmp/Gau-7142.chk"
 B after Tr=     0.000000    0.000000    0.000000
         Rot=    1.000000   -0.000000   -0.000000   -0.000000 Ang=  -0.00 deg.
 Initial guess orbital symmetries:
       Occupied  (A') (A') (A') (A') (A') (A") (A') (A') (A') (A")
                 (A') (A") (A')
       Virtual   (A') (A') (A') (A') (A') (A') (A") (A") (A') (A')
                 (A') (A') (A") (A') (A") (A') (A') (A") (A') (A")
                 (A') (A') (A") (A')
 Keep R1 ints in memory in symmetry-blocked form, NReq=7153137.
 Requested convergence on RMS density matrix=1.00D-08 within 128 cycles.
 Requested convergence on MAX density matrix=1.00D-06.
 Requested convergence on             energy=1.00D-06.
 No special actions if energy rises.
 SCF Done:  E(RB3LYP) =  -535.579086077     A.U. after    6 cycles
            NFock=  6  Conv=0.48D-08     -V/T= 2.0025
 Calling FoFJK, ICntrl=      2127 FMM=F ISym2X=1 I1Cent= 0 IOpClX= 0 NMat=1 NMatS=1 NMatT=0.
 ***** Axes restored to original set *****
 -------------------------------------------------------------------
 Center     Atomic                   Forces (Hartrees/Bohr)
 Number     Number              X              Y              Z
 -------------------------------------------------------------------
      1        8           0.000235050    0.000365867   -0.000199974
      2       17          -0.000415796   -0.000649291    0.000355600
      3        1           0.000180746    0.000283424   -0.000155626
 -------------------------------------------------------------------
 Cartesian Forces:  Max     0.000649291 RMS     0.000347568

 GradGradGradGradGradGradGradGradGradGradGradGradGradGradGradGradGradGrad
 Berny optimization.
 FormGI is forming the generalized inverse of G from B-inverse, IUseBI=4.
 Internal  Forces:  Max     0.000468865 RMS     0.000348562
 Search for a saddle point.
 Step number  99 out of a maximum of  100
 All quantities printed in internal units (Hartrees-Bohrs-Radians)
 Swapping is turned off.
 Update second derivatives using D2CorX and points   99
 The second derivative matrix:
                          R1        R2        R3
           R1           0.27003
           R2           0.09499   0.51413
           R3          -0.32091  -0.10356   0.39830
 ITU=  0  0  0  0
     Eigenvalues ---    0.00678   0.42942   0.74627
 Eigenvectors required to have negative eigenvalues:
                          R1        R3        R2
   1                    0.77540   0.63125  -0.01632
 RFO step:  Lambda0=6.835605493D-03 Lambda= 0.00000000D+00.
 Linear search not attempted -- option 19 set.
 Iteration  1 RMS(Cart)=  0.00002133 RMS(Int)=  0.00000000
 Iteration  2 RMS(Cart)=  0.00000001 RMS(Int)=  0.00000000
 ClnCor:  largest displacement from symmetrization is 1.24D-14 for atom     3.
 Variable       Old X    -DE/DX   Delta X   Delta X   Delta X     New X
                                 (Linear)    (Quad)   (Total)
    R1       11.21604  -0.00047   0.00000   0.00000   0.00000  11.21604
    R2        1.85472   0.00001   0.00000   0.00000   0.00000   1.85472
    R3       13.06948  -0.00038   0.00000   0.00000   0.00000  13.06948
         Item               Value     Threshold  Converged?
 Maximum Force            0.000469     0.000450     NO 
 RMS     Force            0.000349     0.000300     NO 
 Maximum Displacement     0.000022     0.001800     YES
 RMS     Displacement     0.000021     0.001200     YES
 Predicted change in Energy= 1.126425D-09
 GradGradGradGradGradGradGradGradGradGradGradGradGradGradGradGradGradGrad

                          Input orientation:                          
 ---------------------------------------------------------------------
 Center     Atomic      Atomic             Coordinates (Angstroms)
 Number     Number       Type             X           Y           Z
 ---------------------------------------------------------------------
      1          8           0       -3.523017   -1.899709   -0.613818
      2         17           0       -0.604470    2.636225   -3.090681
      3          1           0       -3.974175   -2.656557   -0.181458
 ---------------------------------------------------------------------
                    Distance matrix (angstroms):
                    1          2          3
     1  O    0.000000
     2  Cl   5.935273   0.000000
     3  H    0.981477   6.916071   0.000000
 Stoichiometry    ClHO
 Framework group  CS[SG(ClHO)]
 Deg. of freedom     3
 Full point group                 CS      NOp   2
 Largest Abelian subgroup         CS      NOp   2
 Largest concise Abelian subgroup C1      NOp   1
                         Standard orientation:                         
 ---------------------------------------------------------------------
 Center     Atomic      Atomic             Coordinates (Angstroms)
 Number     Number       Type             X           Y           Z
 ---------------------------------------------------------------------
      1          8           0       -0.001516    3.843037    0.000000
      2         17           0       -0.001516   -2.092236   -0.000000
      3          1           0        0.037904    4.823722    0.000000
 ---------------------------------------------------------------------
 Rotational constants (GHZ):      350567.5630959           1.2270813           1.2270770
 Standard basis: SVP (5D, 7F)
 There are    29 symmetry adapted cartesian basis functions of A'  symmetry.
 There are    10 symmetry adapted cartesian basis functions of A"  symmetry.
 There are    27 symmetry adapted basis functions of A'  symmetry.
 There are    10 symmetry adapted basis functions of A"  symmetry.
    37 basis functions,    69 primitive gaussians,    39 cartesian basis functions
    13 alpha electrons       13 beta electrons
       nuclear repulsion energy        17.7395447063 Hartrees.
 NAtoms=    3 NActive=    3 NUniq=    3 SFac= 1.00D+00 NAtFMM=   60 NAOKFM=F Big=F
 Integral buffers will be    131072 words long.
 Raffenetti 2 integral format.
 Two-electron integral symmetry is turned on.
 Nuclear repulsion after empirical dispersion term =       17.7392707172 Hartrees.
 One-electron integrals computed using PRISM.
 NBasis=    37 RedAO= T EigKep=  5.59D-02  NBF=    27    10
 NBsUse=    37 1.00D-06 EigRej= -1.00D+00 NBFU=    27    10
 Initial guess from the checkpoint file:  "/tmp/Gau-7142.chk"
 B after Tr=    -0.000000    0.000000   -0.000000
         Rot=    1.000000    0.000000    0.000000   -0.000000 Ang=  -0.00 deg.
 Initial guess orbital symmetries:
       Occupied  (A') (A') (A') (A') (A') (A") (A') (A') (A') (A")
                 (A') (A") (A')
       Virtual   (A') (A') (A') (A') (A') (A') (A") (A") (A') (A')
                 (A') (A') (A") (A') (A") (A') (A') (A") (A') (A")
                 (A') (A') (A") (A')
 Keep R1 ints in memory in symmetry-blocked form, NReq=7153137.
 Requested convergence on RMS density matrix=1.00D-08 within 128 cycles.
 Requested convergence on MAX density matrix=1.00D-06.
 Requested convergence on             energy=1.00D-06.
 No special actions if energy rises.
 SCF Done:  E(RB3LYP) =  -535.579086076     A.U. after    5 cycles
            NFock=  5  Conv=0.99D-08     -V/T= 2.0025
 Calling FoFJK, ICntrl=      2127 FMM=F ISym2X=1 I1Cent= 0 IOpClX= 0 NMat=1 NMatS=1 NMatT=0.
 ***** Axes restored to original set *****
 -------------------------------------------------------------------
 Center     Atomic                   Forces (Hartrees/Bohr)
 Number     Number              X              Y              Z
 -------------------------------------------------------------------
      1        8           0.000234966    0.000365736   -0.000199903
      2       17          -0.000415794   -0.000649291    0.000355601
      3        1           0.000180828    0.000283554   -0.000155698
 -------------------------------------------------------------------
 Cartesian Forces:  Max     0.000649291 RMS     0.000347562

 GradGradGradGradGradGradGradGradGradGradGradGradGradGradGradGradGradGrad
 Berny optimization.
 FormGI is forming the generalized inverse of G from B-inverse, IUseBI=4.
 Internal  Forces:  Max     0.000468715 RMS     0.000348549
 Search for a saddle point.
 Step number 100 out of a maximum of  100
 All quantities printed in internal units (Hartrees-Bohrs-Radians)
 Swapping is turned off.
 Update second derivatives using D2CorX and points  100
 The second derivative matrix:
                          R1        R2        R3
           R1           0.27003
           R2           0.09499   0.51413
           R3          -0.32091  -0.10356   0.39830
 ITU=  0  0  0  0
     Eigenvalues ---    0.00678   0.42942   0.74627
 Eigenvectors required to have negative eigenvalues:
                          R1        R3        R2
   1                    0.77540   0.63125  -0.01632
 RFO step:  Lambda0=6.835601529D-03 Lambda= 0.00000000D+00.
 Linear search not attempted -- option 19 set.
 Iteration  1 RMS(Cart)=  0.00001804 RMS(Int)=  0.00000000
 Iteration  2 RMS(Cart)=  0.00000001 RMS(Int)=  0.00000000
 ClnCor:  largest displacement from symmetrization is 1.24D-14 for atom     3.
 Variable       Old X    -DE/DX   Delta X   Delta X   Delta X     New X
                                 (Linear)    (Quad)   (Total)
    R1       11.21604  -0.00047   0.00000   0.00000   0.00000  11.21604
    R2        1.85472   0.00001   0.00000   0.00000   0.00000   1.85472
    R3       13.06948  -0.00038   0.00000   0.00000   0.00000  13.06948
         Item               Value     Threshold  Converged?
 Maximum Force            0.000469     0.000450     NO 
 RMS     Force            0.000349     0.000300     NO 
 Maximum Displacement     0.000019     0.001800     YES
 RMS     Displacement     0.000018     0.001200     YES
 Predicted change in Energy= 9.069034D-10
 Optimization stopped.
    -- Number of steps exceeded,  NStep= 100
    -- Flag reset to prevent archiving.
                           ----------------------------
                           ! Non-Optimized Parameters !
                           ! (Angstroms and Degrees)  !
 --------------------------                            --------------------------
 ! Name  Definition              Value          Derivative Info.                !
 --------------------------------------------------------------------------------
 ! R1    R(1,2)                  5.9353         -DE/DX =   -0.0005              !
 ! R2    R(1,3)                  0.9815         -DE/DX =    0.0                 !
 ! R3    R(2,3)                  6.9161         -DE/DX =   -0.0004              !
 --------------------------------------------------------------------------------
 GradGradGradGradGradGradGradGradGradGradGradGradGradGradGradGradGradGrad

                          Input orientation:                          
 ---------------------------------------------------------------------
 Center     Atomic      Atomic             Coordinates (Angstroms)
 Number     Number       Type             X           Y           Z
 ---------------------------------------------------------------------
      1          8           0       -3.523017   -1.899709   -0.613818
      2         17           0       -0.604470    2.636225   -3.090681
      3          1           0       -3.974175   -2.656557   -0.181458
 ---------------------------------------------------------------------
                    Distance matrix (angstroms):
                    1          2          3
     1  O    0.000000
     2  Cl   5.935273   0.000000
     3  H    0.981477   6.916071   0.000000
 Stoichiometry    ClHO
 Framework group  CS[SG(ClHO)]
 Deg. of freedom     3
 Full point group                 CS      NOp   2
 Largest Abelian subgroup         CS      NOp   2
 Largest concise Abelian subgroup C1      NOp   1
                         Standard orientation:                         
 ---------------------------------------------------------------------
 Center     Atomic      Atomic             Coordinates (Angstroms)
 Number     Number       Type             X           Y           Z
 ---------------------------------------------------------------------
      1          8           0       -0.001516    3.843037   -0.000000
      2         17           0       -0.001516   -2.092236    0.000000
      3          1           0        0.037904    4.823722   -0.000000
 ---------------------------------------------------------------------
 Rotational constants (GHZ):      350567.5630960           1.2270813           1.2270770

 **********************************************************************

            Population analysis using the SCF density.

 **********************************************************************

 Orbital symmetries:
       Occupied  (A') (A') (A') (A') (A') (A") (A') (A') (A') (A")
                 (A') (A") (A')
       Virtual   (A') (A') (A') (A') (A') (A') (A") (A") (A') (A')
                 (A') (A') (A") (A') (A") (A') (A') (A") (A') (A")
                 (A') (A') (A") (A')
 The electronic state is 1-A'.
 Alpha  occ. eigenvalues -- -101.52300 -19.21432  -9.47377  -7.24628  -7.23146
 Alpha  occ. eigenvalues --   -7.23146  -0.97611  -0.78909  -0.46953  -0.33741
 Alpha  occ. eigenvalues --   -0.31697  -0.31696  -0.31059
 Alpha virt. eigenvalues --   -0.29265   0.04137   0.44359   0.54036   0.75537
 Alpha virt. eigenvalues --    0.76068   0.76068   0.78144   0.78144   0.84984
 Alpha virt. eigenvalues --    0.86826   0.86867   0.86869   0.87094   0.88256
 Alpha virt. eigenvalues --    1.02264   1.38242   1.39271   2.12569   2.58144
 Alpha virt. eigenvalues --    2.58377   2.89449   2.91987   3.61848
          Condensed to atoms (all electrons):
               1          2          3
     1  O    7.876852   0.000000   0.281486
     2  Cl   0.000000  17.036614   0.000000
     3  H    0.281486   0.000000   0.523562
 Mulliken charges:
               1
     1  O   -0.158338
     2  Cl  -0.036614
     3  H    0.194952
 Sum of Mulliken charges =   0.00000
 Mulliken charges with hydrogens summed into heavy atoms:
               1
     1  O    0.036614
     2  Cl  -0.036614
 Electronic spatial extent (au):  <R**2>=            797.5793
 Charge=              0.0000 electrons
 Dipole moment (field-independent basis, Debye):
    X=              0.0710    Y=              2.8235    Z=             -0.0000  Tot=              2.8244
 Quadrupole moment (field-independent basis, Debye-Ang):
   XX=            -17.8425   YY=              0.6872   ZZ=            -18.9022
   XY=              0.3047   XZ=             -0.0000   YZ=             -0.0000
 Traceless Quadrupole moment (field-independent basis, Debye-Ang):
   XX=             -5.8233   YY=             12.7063   ZZ=             -6.8830
   XY=              0.3047   XZ=             -0.0000   YZ=             -0.0000
 Octapole moment (field-independent basis, Debye-Ang**2):
  XXX=              0.0315  YYY=            111.8687  ZZZ=             -0.0000  XYY=              1.5324
  XXY=              6.0345  XXZ=             -0.0000  XZZ=              0.0112  YZZ=              1.9393
  YYZ=             -0.0000  XYZ=              0.0000
 Hexadecapole moment (field-independent basis, Debye-Ang**3):
 XXXX=            -15.9632 YYYY=           -206.2137 ZZZZ=            -17.0442 XXXY=             -0.2931
 XXXZ=             -0.0000 YYYX=              6.4396 YYYZ=             -0.0000 ZZZX=             -0.0000
 ZZZY=             -0.0000 XXYY=           -140.6775 XXZZ=             -5.5012 YYZZ=           -156.6962
 XXYZ=             -0.0000 YYXZ=             -0.0000 ZZXY=             -0.0952
 N-N= 1.773927071717D+01 E-N=-1.308696863344D+03  KE= 5.342174613483D+02
 Symmetry A'   KE= 4.835334089068D+02
 Symmetry A"   KE= 5.068405244156D+01


 WE STILL HAVE JUDGEMENT HERE,
 THAT WE TEACH BUT BLOODY INSTRUCTIONS,
 WHICH, BEING TAUGHT,
 RETURN TO PLAGUE THE INVENTOR.
           MACBETH ACT I, SCENE VII
 Error termination request processed by link 9999.
 Error termination via Lnk1e in /share/apps/g16.a03/g16/l9999.exe at Thu Mar  6 16:41:28 2025.
 Job cpu time:       0 days  0 hours 15 minutes 48.6 seconds.
 Elapsed time:       0 days  0 hours  2 minutes  1.5 seconds.
 File lengths (MBytes):  RWF=      6 Int=      0 D2E=      0 Chk=      1 Scr=      1
