70
 energy: -143.136649428109 gnorm: 0.115742314492 xtb: 6.6.1 (8d0f1dd)
O    -3.17916425    -0.87918430     3.37902996
H    -3.91682055    -1.39962960     3.70204374
H    -3.04176297    -1.38941139     2.57895004
O    -2.08679528     0.30224168    -1.64352869
H    -2.57948215     0.42104470    -2.45746007
H    -2.79053240     0.65854781    -1.09842495
O    -0.57255288    -0.79191563     3.91763503
H    -0.17926455    -1.57986464     3.53842630
H    -1.50777844    -0.81913051     3.70799040
O    -2.50945360    -2.02885366     0.96074094
H    -3.11453504    -1.71286064     0.28741797
H    -1.78008964    -2.37377189     0.44266942
O     0.60594321    -1.79089845    -3.18767184
H     0.85290531    -0.97774230    -3.63166057
H     0.80181218    -2.51937190    -3.77953322
O    -0.15502601    -1.46068700    -0.65539320
H    -0.17207203    -0.51055499    -0.52773518
H     0.11074987    -1.67624742    -1.55106968
O    -2.14062986    -2.24012533    -2.85949376
H    -1.36967910    -2.40984335    -3.40370710
H    -1.84042538    -1.55505545    -2.25958117
O    -4.51499259    -1.18720691    -2.79442074
H    -3.85728288    -1.87030475    -2.65252838
H    -5.23395325    -1.39058822    -3.39531018
O     1.07495571     0.67482162    -4.11702095
H     1.76714151     1.33267252    -4.03070987
H     0.21095934     1.08996328    -4.13950407
O    -4.83309509    -0.65599621    -0.03492913
H    -4.67067080    -0.59030131    -0.97760663
H    -5.02257076     0.21352652     0.32195668
O    -0.93491180     2.23383590    -2.98372471
Cl    -2.21747979     2.19609156    -4.10388405
H    -1.10538861     1.74071191    -2.17233529
O     1.35875759     4.51660275     1.63047496
Cl     1.21765329     5.27509023     3.14901076
H     2.00260964     4.97897374     1.08069800
O     1.00562978    -2.82272641     1.76377000
Cl     2.68869147    -2.92066793     1.52112910
H     0.72157305    -2.36393335     0.96414082
O     1.40711205     0.92851140     4.38180746
Cl     1.07037880     2.46491656     5.03543635
H     0.59119858     0.45145670     4.18869586
C     5.07326889    -0.90900474     0.28587706
C     4.90831610    -0.60377719     1.63136923
C     3.88820234     0.21280829     2.08108577
C     2.93339520     0.71090782     1.18826381
C     3.06099759     0.36997662    -0.15798247
C     4.17953258    -0.32327463    -0.60595973
H     5.69995820    -0.89761897     2.30797450
H     3.98934657     0.41198051     3.14226237
C    -1.66020513     2.59018278     1.29976337
C    -1.57218922     3.65951885     0.40497227
C    -2.88466521     2.13029720     1.79277450
C    -2.75357285     4.29893314     0.05120447
H    -0.60334839     3.99160948     0.06817960
C    -4.04959504     2.76070055     1.38707452
C    -3.96874273     3.87639988     0.56685476
H    -2.78248911     5.15873456    -0.60548464
H    -5.00858194     2.37269377     1.70422741
Cl     6.19872978    -2.11921710    -0.23750836
Cl    -5.38191422     4.64092978    -0.11215945
N     1.77957447     1.34854501     1.66956572
H     1.82134076     1.42604784     2.67355956
C     0.65295977     1.71670600     0.95122662
O     0.67063497     1.83126632    -0.25118674
N    -0.49748975     1.90100809     1.69335338
H    -0.55892468     1.29016881     2.49269635
H    -2.99325364     1.27822027     2.45579601
H     2.46595244     0.88935106    -0.89156029
Cl     4.54928265    -0.44285864    -2.29543710
