70
 energy: -143.016385903929 gnorm: 0.048187458248 xtb: 6.6.1 (8d0f1dd)
O           -2.02153396871554        3.75991554032547       -4.87202500242565
H           -1.37433550794433        4.24973813740418       -4.36158793842711
H           -1.89141753345091        2.84897402528993       -4.60259234993196
O            3.53173617349181       -0.41367546973357       -4.57150707930005
H            2.87212458672094       -0.47855610877865       -5.26435760710942
H            3.03554224447222       -0.54969392482872       -3.76241583757349
O           -0.33911714457196        2.39395171698743        5.42353861918421
H           -0.66906116053871        3.29086807802984        5.50110538418168
H           -0.66109091960307        1.95690108388670        6.21389170223790
O           -0.00479910160058       -3.28378356340508        5.15578055429917
H            0.36610950608656       -3.93510599047946        4.55782999017909
H           -0.60735744353013       -2.77858886819102        4.60710922758829
O           -0.52773904211632       -5.52855768151030       -0.35823330284721
H            0.07255726732940       -5.06220386151359       -0.94261130180876
H           -0.59462006051838       -4.95997734941386        0.41091001483786
O            0.56100296020706       -3.28355854235458       -4.18986912606788
H            0.78179217016719       -2.92445526816226       -3.32868683212336
H            0.33361047218780       -2.51317422378954       -4.71345303848926
O           -4.22417669998399        0.67125312063644       -3.27331389085234
H           -3.88751768975994        0.27114256615334       -4.07699896327572
H           -4.68614038421864        1.45446668696169       -3.57745966218154
O            3.23760535470916       -4.82934635939002        2.17489541733516
H            3.20362419609762       -4.83716998557975        3.13308237568236
H            2.36191056778970       -5.11372010918331        1.90726372482548
O            1.83765660843743        2.60102144585711       -4.21539655867596
H            1.19279368143055        2.18865872929658       -3.63794751980244
H            1.87805315013424        3.50916743559953       -3.91047559378391
O            2.90467510527274       -3.29110808732403       -0.78720701902346
H            3.42173594275901       -2.73566662685981       -1.37327118779200
H            2.30175403928557       -2.68134337387315       -0.35824143179174
O           -6.07672646003550       -0.48293790016242       -0.37418208262951
Cl          -5.11917847942416       -1.67482987832859       -1.12495341760392
H           -5.46182338473456        0.24990948054754       -0.25002357950552
O           -1.49989081422898        5.78134964852446        2.46926291920670
Cl          -0.27724977372806        4.64435057087808        2.13229609475495
H           -2.27856850580761        5.23197981773993        2.61906592906484
O           -3.84149054244336       -1.56004696352067        2.63521620080000
Cl          -5.37019071726215       -2.24705557861139        2.33147493250554
H           -3.27074917438554       -1.99492127669131        1.99044899534221
O            4.60562782895096        5.39688190938513       -0.72313498332772
Cl           5.28424887066764        5.27908133337629        0.83467031235571
H            4.22163186334274        4.52329586272840       -0.86449477465568
C            5.38943615435502       -0.57787422532582        1.09248118496752
C            4.64161358515614       -1.23246128434511        2.06356294068393
C            3.30948952063900       -0.91759536965239        2.25328352809352
C            2.69165584685100        0.06483717318677        1.47225934991579
C            3.43592565912372        0.72825002588373        0.49714838879597
C            4.77456062536046        0.40009093768339        0.31612456330642
H            5.11677013776067       -1.99375887153489        2.66811829018718
H            2.74248260990298       -1.44094976604135        3.01525390763065
C           -1.87610866823774        1.93125440072972        1.05473983954896
C           -1.92271455655017        2.49704558377762       -0.22181244317074
C           -2.98578370799390        2.05048493118027        1.89632320937315
C           -3.06564127663947        3.17164473773787       -0.63206120976978
H           -1.07297702612732        2.41889538773546       -0.88075455580616
C           -4.12531563035105        2.72079736535662        1.48254720648318
C           -4.15780859241035        3.28146708430861        0.21421120334052
H           -3.10502647013692        3.61351518075535       -1.61924636476640
H           -4.98090198361999        2.81047809977353        2.13884014828540
Cl           7.05705994318482       -1.00029604147771        0.87847350107765
Cl          -5.58519057658269        4.13182292223580       -0.31691547178357
N            1.34193371960269        0.34184087229581        1.73881923325009
H            0.93677646031412       -0.21189227432694        2.47704816147158
C            0.49235795348323        1.14682308282850        0.99649928904177
O            0.82228551782631        1.72049704554277       -0.01408486304372
N           -0.77196217479379        1.21148238314613        1.54928066888467
H           -0.89931088407046        0.82700942819499        2.47221669908271
H           -2.95884492659269        1.61483879000312        2.88975705563524
H            2.98368808786181        1.48534744620346       -0.12273036811165
Cl           5.66206794969795        1.24759071934015       -0.90838521537403
70
 energy: -143.013148711833 gnorm: 0.089325590170 xtb: 6.6.1 (8d0f1dd)
O           -1.94422822902132        3.28399409272473       -4.59597208722177
H           -1.23223421761738        2.64470297394307       -4.65687704357851
H           -2.86104136108140        3.00617636536745       -4.55585131929268
O            3.29103358115908       -0.17460846326287       -4.64261681598213
H            3.74197127117830       -0.20124637556904       -3.79687192657452
H            2.37338499712368       -0.20593739558421       -4.36643273429305
O           -0.57241106923643        2.63804774625777        4.95479938490548
H           -0.98377552866409        3.02273791018444        5.73077063096287
H           -1.01012387610167        3.17459552069813        4.29157819401721
O           -0.43521913795829       -3.68228110555478        5.37343336208122
H           -0.14616972352915       -4.48976330982428        4.94475877430602
H           -0.07914574039658       -3.00318128439077        4.79778274868811
O           -1.06954446488408       -5.57555800426771       -0.24316458946801
H           -1.70492929510397       -4.86456917209790       -0.14256544291969
H           -0.99831434101433       -5.91524332314418        0.65063531062277
O            0.78452467563593       -2.53052812662312       -4.04934496969437
H            0.21047125545598       -2.87091217501198       -3.36091243810096
H            0.99243767618066       -1.59474941895205       -4.07007778713336
O           -3.87632835211306        0.33080975309336       -3.71400347533854
H           -3.58307520337250        0.51433689326985       -2.81976758913044
H           -4.31386123634308       -0.52235713072413       -3.71086822103968
O            3.05962101523510       -4.60884324836094        1.62378114726793
H            2.36427216922974       -3.97643998174823        1.43432332570711
H            2.64976601973292       -5.38636252002778        1.24061124096842
O            1.88672286386673        2.11000839240467       -4.24218138970525
H            1.75036657593086        3.05860999414191       -4.21217204024747
H            2.80775971958155        1.90503362289448       -4.41251714160782
O            3.31895375606994       -2.50195919622909       -0.89462251717711
H            4.02178717651358       -1.85902721500116       -1.00417609402801
H            3.75676511647956       -3.31310256052629       -1.15864135715428
O           -5.70914789279666       -0.23510978087518       -0.51724906070626
Cl          -5.27999428712906       -1.83301412934231       -0.92183662366554
H           -5.21877514912634        0.23476388705983       -1.20233279118929
O           -1.55554451819398        5.52718064648911        2.38951365190345
Cl          -0.29899303841891        4.45052049510243        1.98572415927384
H           -2.38418271490166        5.11785049374663        2.11311780332056
O           -3.83598471526769       -2.05039409326834        2.41501701080803
Cl          -5.51690781456276       -2.10208940283403        2.68518168094489
H           -3.47810867166281       -1.90461054493476        3.29890502472777
O            4.74787688686369        5.13595250209452       -0.52546804426564
Cl           5.05821462454251        4.94976576253285        1.13891947665964
H            3.88416828437484        5.47616256004725       -0.78786590930184
C            5.45092232107029       -0.46187996817816        1.08816618754406
C            4.69456331374666       -1.06818541061309        2.08367471115081
C            3.37525062623779       -0.71217067735979        2.28948147958631
C            2.77300608145975        0.25581934939291        1.47881039069049
C            3.52447020652994        0.86246107107884        0.47273738253301
C            4.85490554736063        0.50599412557216        0.28492217602898
H            5.15822060946773       -1.80078686661639        2.73109412968257
H            2.85907851841631       -1.22174261382219        3.09564415903296
C           -1.78682141614035        2.02590070691239        0.99738999352013
C           -1.89185412126119        2.56293916911746       -0.28808081291343
C           -2.88456998712912        2.07789235522119        1.86116196044292
C           -3.02809722398788        3.28175717437435       -0.63725378416545
H           -1.04381417939568        2.55506884679077       -0.95376263755148
C           -4.05467162314867        2.71591761431103        1.48320931839479
C           -4.08946640512764        3.35255186577746        0.25131297007393
H           -3.19333926727216        3.77630834501641       -1.58564683304800
H           -4.92452489066807        2.80128885824115        2.12106358809344
Cl           7.09418033894932       -0.93875080400940        0.80976764033603
Cl          -5.51746361389874        4.27690425887831       -0.13471355695886
N            1.42764307708994        0.53710619307884        1.76237872692650
H            1.14177503934036        0.56740562132343        2.72835807945686
C            0.53350720696243        1.12158915207114        0.87936410376929
O            0.79911560458620        1.32569545773164       -0.28125083482276
N           -0.65710265530723        1.37757127650652        1.53141826706634
H           -0.78580638045917        0.99919436338748        2.45668269835724
H           -2.72132009919279        1.52663226940045        2.78142595017877
H            3.09713843648355        1.64337280766533       -0.13515186942012
Cl           5.75311404043304        1.27885961714768       -0.98048275318961
70
 energy: -143.035159978612 gnorm: 0.087146004764 xtb: 6.6.1 (8d0f1dd)
O           -1.83518880207977        2.51796800783300       -3.99751365178392
H           -2.35006645871284        1.71221480164272       -3.92679738808796
H           -2.51170431537172        3.10296747509078       -4.34311612335269
O            3.49836262010997       -0.46137529706648       -4.45124557331715
H            3.20838353062895        0.45035580444978       -4.38802118875937
H            4.45026020056400       -0.45359235821478       -4.56599963620637
O           -0.76649041594916        2.51714541425745        3.97187352371337
H           -0.29830359786920        3.33738714880521        3.80651568237451
H           -1.71817674636274        2.62940054580313        3.93977558702584
O           -0.68517652165507       -3.84940805861142        5.10625941938360
H           -0.69322072400322       -3.30608305874917        5.89624183167596
H           -1.48440925329535       -4.37805033736529        5.07305035368251
O           -1.72011796154919       -5.46693700028007        0.09109393781746
H           -1.12464380035698       -5.37416094229937        0.83684343774890
H           -1.25422779181697       -5.74404336071695       -0.69978944332119
O            0.88021802145167       -1.70029083483933       -3.64748666289463
H            1.37146906807636       -2.04065226371753       -4.39726295426169
H            0.87485630924486       -2.30590262366128       -2.90415290977488
O           -3.33434154440562        0.00331407746218       -3.67487772329856
H           -3.38767185819481       -0.35482984017484       -2.78705665320574
H           -2.97860668064614       -0.68512753980559       -4.23953641008622
O            2.74967710111156       -4.04796650809204        0.70716907760093
H            2.54761806047474       -4.37935890057245       -0.16958026041824
H            2.04705800584127       -3.43969688636121        0.94311607691646
O            1.44514124535045        2.07344694148349       -4.11736189839591
H            1.86539977410760        2.62965656926800       -3.45906696745713
H            0.58417332490165        1.82192606111163       -3.77852668654207
O            3.77959410253940       -1.73749276637857       -0.96469943433905
H            3.46426512407005       -1.78959413686641       -1.86868583805857
H            4.43024576336270       -2.43644397850061       -0.87834023129148
O           -5.19692614830980       -0.05754162781395       -0.78471104912371
Cl          -5.35749198225770       -1.75229474738090       -0.72820709443283
H           -5.24624422510613        0.37799829646780       -1.64404748555810
O           -1.75938045088644        4.95215677580594        2.11568855378865
Cl          -0.12114513470620        4.54456659603198        1.88937030123564
H           -1.84072463613956        5.51637396208317        2.89391036685734
O           -3.92571220577250       -2.56345967440289        2.64898757168394
Cl          -5.46476819222834       -1.87970460045294        2.90383946821825
H           -3.37992587131640       -1.98150362019440        2.10674172818391
O            4.63151924479165        4.63749350749151       -0.29111644062764
Cl           4.72679355330125        4.49021814567840        1.40310715948211
H            3.67551866559723        4.72666319425190       -0.38438879807607
C            5.49933262299423       -0.32245141518865        1.03290355181792
C            4.80703307299889       -0.85314128999336        2.11448204960185
C            3.49036341858642       -0.49150219337076        2.32728964458501
C            2.82404147452956        0.38233855465662        1.46166372839872
C            3.51279208094882        0.91864872661193        0.37405652440752
C            4.84931411003906        0.58023426543614        0.19633216374230
H            5.29494823233649       -1.62178604766379        2.69925458534073
H            2.91660989432814       -0.89123089139748        3.15615594103074
C           -1.81068555025620        1.95087388178326        1.05106055510262
C           -1.86448409892963        2.50276319137202       -0.23128157086180
C           -2.87622030744688        2.09990644415420        1.94340694556657
C           -2.97595136875333        3.24961424552110       -0.60077245789155
H           -1.10400653022804        2.31411357150544       -0.97185647208550
C           -3.98418115929145        2.83772216992085        1.55985382435624
C           -4.04294375943251        3.36148207717416        0.27676965127528
H           -2.94669083464489        3.62973926316289       -1.61368112739029
H           -4.70927503318847        2.86202127838590        2.36262369375744
Cl           7.12488485123803       -0.84627390394900        0.73558485764524
Cl          -5.40703242999889        4.34216403493608       -0.19242632885341
N            1.50219340525951        0.73328878269926        1.77644389159272
H            1.11166564293627        0.50321260094622        2.67661483683111
C            0.54381485163192        1.12411570072102        0.85471778460014
O            0.69577676147421        1.23776805779245       -0.33827215504493
N           -0.66773035985032        1.26464392394449        1.50330347425174
H           -0.69649067930446        1.33011451527211        2.50865638652908
H           -2.90067468679220        1.67007117117088        2.93943287461778
H            2.95628180256330        1.49970910535931       -0.34332069453429
Cl           5.78962158712014        1.29443757453234       -1.07295294257809
70
 energy: -143.042643116244 gnorm: 0.095584072787 xtb: 6.6.1 (8d0f1dd)
O           -1.56970955549482        1.94739937913964       -3.44285621744708
H           -1.71469033326382        0.99963778211704       -3.45101402497536
H           -2.08963853283124        2.18240380481657       -2.67228145585080
O            3.67918064808456       -0.66003389390970       -4.18522549080409
H            3.38755559998685        0.13177809416712       -4.64055768104636
H            4.35300006421487       -0.44647757633374       -3.53738356067745
O           -0.48482349047003        2.00230200548531        4.19495504773302
H           -0.84939594509595        2.69685828499683        3.64357757691186
H           -0.35981991676490        2.27541940504055        5.10551496131099
O           -1.08317810954298       -3.65326331321028        4.62138743954022
H           -0.13338147512506       -3.78307731759986        4.64071756915011
H           -1.49248529507310       -4.11692572063725        3.88870520277694
O           -2.09513630922111       -5.27931473709651        0.50458004998335
H           -1.75023248179058       -5.89800182523979       -0.14164500912420
H           -2.58857475910765       -4.57810382854825        0.07544153421543
O            1.00318707364704       -0.79559400041120       -3.01718396996852
H            0.17861072237176       -1.28415401959642       -2.99033385366925
H            1.24877098288932       -0.79439968449625       -2.09034710601900
O           -2.73453796242064       -0.65408453720055       -3.27604688519401
H           -3.33545907431688       -0.24465521153926       -2.65106777740246
H           -3.20077314465034       -1.36566129214065       -3.71833848914458
O            2.41683765005019       -3.30749416671298       -0.12148995683571
H            1.51195003772585       -3.29659125373634       -0.43834593510434
H            2.70734622023339       -3.87809888267033        0.59219872951313
O            1.05267156758216        1.90959871734403       -3.74160370653402
H            0.09856309173034        1.97005280169294       -3.81482199063195
H            1.26657734186608        0.97562515108663       -3.77731800839539
O            3.60969196182958       -1.57740406822289       -1.83078957799231
H            4.56469949069507       -1.60412623819006       -1.91193685780793
H            3.24141797480545       -1.49078552102602       -2.71181726789363
O           -4.49352802397016       -0.09716197845938       -1.12160948153617
Cl          -5.33400850530774       -1.45440370964357       -0.52776635087647
H           -5.13153389386410        0.35889570777876       -1.68334456690115
O           -1.45832510057472        4.57185845313759        2.11944048901637
Cl           0.07433544722835        5.01942785611594        1.52631492727366
H           -1.80430961612166        3.98317265114691        1.43802223152885
O           -4.17829219746685       -2.90413001055941        2.64348797479711
Cl          -5.23633290207802       -1.64808408652516        3.09522055483515
H           -3.85810031993416       -3.17601547943541        3.51190122900168
O            4.29222630501792        4.05696832736816       -0.03581314106942
Cl           4.33200169035709        3.92063486638410        1.66153536155614
H            4.10796649673037        3.15666730092268       -0.32923171231542
C            5.53937115161219       -0.10761871227582        1.10651907029285
C            4.90721625987968       -0.64625936245158        2.22050690975168
C            3.57241298315325       -0.36746383354456        2.44469917279342
C            2.87691246933534        0.46698830927099        1.56330283221153
C            3.52017285218357        1.03206517746026        0.46248509669349
C            4.86159182826798        0.74392868365421        0.23893655235279
H            5.42683038860939       -1.28061456655760        2.92650232071986
H            3.15363635115813       -0.84208075578291        3.32524468486333
C           -1.84210078177950        1.75330118418096        0.85469635802422
C           -1.87216833165750        2.45952088808948       -0.35038753654404
C           -3.00376669221175        1.73805601756291        1.63197179000115
C           -2.97292647265395        3.21298319839174       -0.73806734215569
H           -0.99436841624606        2.44940462805551       -0.97627171896379
C           -4.09887215003399        2.51647524321751        1.29452564523066
C           -4.05096273361134        3.27042116376250        0.13118872258406
H           -3.00884643781722        3.93581830074841       -1.54277498516137
H           -5.09772508210711        2.57258777283542        1.70675771474267
Cl           7.14926330810292       -0.61350295185693        0.70960995824132
Cl          -5.33641515275005        4.38492283988760       -0.25367233004983
N            1.49500577422357        0.64084762940208        1.73547081430325
H            1.10268252759216        0.33607613172439        2.61236963712734
C            0.58258626158186        1.14350063348901        0.82133471111340
O            0.84516781041435        1.58528862968393       -0.27187553186445
N           -0.72406997772282        0.99096057536665        1.24280175823432
H           -0.88456802637878        0.52039460797138        2.11953211220228
H           -2.97060375444816        1.05770405296170        2.47662881938327
H            2.98426015157873        1.65808609158824       -0.23239643265128
Cl           5.55466252289829        1.34372047497493       -1.23254298429819
70
 energy: -143.065757457625 gnorm: 0.086219333442 xtb: 6.6.1 (8d0f1dd)
O           -2.01637589923140        1.31207913071220       -3.21949694645591
H           -1.85901468309647        0.38754708779897       -3.01995755229971
H           -2.83701558684134        1.54885000190487       -3.65519035063496
O            3.82937326500980        0.20605335048561       -4.99025893569570
H            4.00917101683158       -0.19130623756054       -4.13637549936576
H            3.35138222394596        1.01518349879716       -4.80007207884947
O           -0.10757970881515        1.48505342624778        4.08285393137859
H           -0.15110401330858        2.27712091560207        3.54426935804181
H            0.05409735583934        1.93117840197434        4.91602341977316
O           -1.50290889467962       -3.46575611534622        3.68222240126729
H           -2.09482615133450       -2.75107507984220        3.92347736010350
H           -0.95954428628972       -3.17345521651635        2.94829219535630
O           -2.44628839933620       -4.80208727864870        0.91692735467449
H           -2.63075345504068       -4.44360484394555        1.78687113300918
H           -1.65118046104752       -5.31299415807897        1.07853068022863
O            0.67426125400655       -0.21293594314049       -1.88100356575313
H           -0.22997410268549       -0.44239605437632       -1.65954373365335
H            0.78763492801653        0.65677537462174       -1.49359152535846
O           -2.02011228012565       -1.69350697853482       -2.76123163687599
H           -1.08902792065282       -1.68353230819865       -2.98996699073879
H           -2.44214888385806       -2.34297637139483       -3.32639816020612
O            1.69894172687713       -3.03399367736833       -0.14317934424090
H            0.94965631759276       -3.42538520162902        0.30928305815785
H            2.34375878902140       -3.72901820438623       -0.28631695444929
O            1.95869967073623        2.13932555561939       -4.11403521873942
H            1.25931495842477        2.76483068284286       -3.91669551889376
H            1.62085947915911        1.34055162285216       -3.70518069279687
O            3.66411199193447       -1.81371134196619       -2.15196704669755
H            2.76902179860929       -2.09998059146780       -2.34223474806033
H            3.56313391080783       -1.07398461618401       -1.55034749007929
O           -4.20437315534173        0.00388020314546       -1.30694418133762
Cl          -5.12068063799837       -1.02070375371013       -0.30107613194415
H           -3.81801645514904       -0.61366334809681       -1.93936403543876
O           -0.64082568243739        4.32048259620118        2.33922062896144
Cl           0.15012805498074        5.32060273547895        1.20992148810357
H           -1.42458402158867        3.99219007750396        1.88256541101330
O           -4.42192993331243       -3.09629649015547        2.92416680215089
Cl          -4.82245344762280       -1.45642654033619        3.15125991505655
H           -5.18896703356512       -3.58853796454290        2.60803622085444
O            3.91252732956512        3.97927993117595        0.32407334494240
Cl           3.90407235110144        3.32185814973362        1.89534224231560
H            4.58174857939848        3.65784512536624       -0.29188984998612
C            5.53048909532075       -0.00238952311734        1.04851735528603
C            4.95285635785929       -0.40478163024546        2.24649209741722
C            3.60015887824243       -0.22694840915526        2.46620503589619
C            2.78749382691947        0.30921484302920        1.46171744421100
C            3.36287869849163        0.68776520166554        0.24906442950251
C            4.73670549044342        0.58141500472231        0.06551324715172
H            5.62661033247145       -0.84641774484469        2.96888258481300
H            3.08550737769887       -0.55321000161029        3.36324611159546
C           -1.91060367616453        1.64074103668238        0.83517746040403
C           -1.75476676789265        2.70425187306765       -0.05731179172706
C           -3.21531606734111        1.32018536222130        1.22095825516990
C           -2.85241067136648        3.41047171091704       -0.53281254576952
H           -0.75229301021743        2.92705486044377       -0.38559707834971
C           -4.28666494830440        2.09508557191885        0.80767434427284
C           -4.13650096529325        3.14938988288276       -0.08113145998621
H           -2.64900323329163        4.08736178975369       -1.35243468717205
H           -5.17236979761359        1.78840747414290        1.34829115794338
Cl           7.22370987732281       -0.24573884584251        0.76746049579282
Cl          -5.44453313613197        4.27050879788399       -0.35456181479091
N            1.41336958929821        0.43572109414672        1.71728293205637
H            1.23745560120315        0.46992186343827        2.70906885186808
C            0.47148154600201        1.05734947058761        0.91277110763645
O            0.74415591168015        1.52504345289746       -0.16711099259698
N           -0.82321635288117        0.92972049372016        1.37722954362932
H           -0.94457917315368        0.53291626747397        2.29574221622035
H           -3.46389317035523        0.55358907699361        1.94756931212072
H            2.70783863627867        1.06622509969488       -0.51882590439277
Cl           5.47361946021568        1.25900453430067       -1.34982397165383
70
 energy: -143.068725686249 gnorm: 0.099732439163 xtb: 6.6.1 (8d0f1dd)
O           -2.11048713947045        0.88767716888142       -3.11172979357706
H           -2.60087555106392        0.29609348153880       -3.68521559739608
H           -2.45546387553561        0.82108482216418       -2.21960020898549
O            4.10658037529857        0.63698199328098       -5.78015639144507
H            3.82562954227026       -0.18930933192317       -5.38310718552210
H            4.52863141651599        1.11282066859307       -5.06266872852289
O            0.32339329853737        1.27867933972415        3.91335908683659
H            0.70264063738713        1.69885350062097        3.13943160580233
H           -0.38008354988232        1.86916720009120        4.18864579935764
O           -1.49246080364926       -2.61833095543811        3.17809210217553
H           -2.36044122248731       -2.68299573141920        2.77588887536222
H           -1.54800613104578       -3.34078733231295        3.80603315066120
O           -2.81109363124242       -4.62883265207154        0.82488032382359
H           -3.76643741880044       -4.57311521533750        0.88448741273167
H           -2.53986204347422       -4.87273987672738        1.71160508346799
O            0.43989684251980       -0.48985810041875       -2.07094091041649
H            0.61988621928752       -0.69980702519472       -2.98901675336749
H           -0.26008872750361        0.15637318903241       -1.96256758556997
O           -1.47909881344305       -2.51498545970025       -2.19354904959105
H           -0.59487557589028       -2.18038786364454       -2.03376433350268
H           -1.56188890990334       -3.30382553268319       -1.65483231008006
O            0.65379204250073       -2.89975168317785        0.12311395626435
H            1.04719085316994       -3.27222693968704       -0.66798511115164
H            0.63486551737085       -2.03977143732188       -0.30045690631831
O            2.23012984634324        2.51800752945746       -4.05939178767979
H            2.85979809635483        3.20357824775858       -4.28928150530202
H            1.54628526718364        2.95609452067379       -3.54971130563436
O            3.57781273113840       -1.68028363806373       -2.37443764410415
H            2.72504480771565       -1.26145516116994       -2.24517855814470