 Entering Gaussian System, Link 0=g16
 Input=ts.gjf
 Output=ts.log
 Initial command:
 /share/apps/g16.a03/g16/l1.exe "/tmp/Gau-5446.inp" -scrdir="/tmp/"
 Entering Link 1 = /share/apps/g16.a03/g16/l1.exe PID=      5448.
  
 Copyright (c) 1988,1990,1992,1993,1995,1998,2003,2009,2016,
            Gaussian, Inc.  All Rights Reserved.
  
 This is part of the Gaussian(R) 16 program.  It is based on
 the Gaussian(R) 09 system (copyright 2009, Gaussian, Inc.),
 the Gaussian(R) 03 system (copyright 2003, Gaussian, Inc.),
 the Gaussian(R) 98 system (copyright 1998, Gaussian, Inc.),
 the Gaussian(R) 94 system (copyright 1995, Gaussian, Inc.),
 the Gaussian 92(TM) system (copyright 1992, Gaussian, Inc.),
 the Gaussian 90(TM) system (copyright 1990, Gaussian, Inc.),
 the Gaussian 88(TM) system (copyright 1988, Gaussian, Inc.),
 the Gaussian 86(TM) system (copyright 1986, Carnegie Mellon
 University), and the Gaussian 82(TM) system (copyright 1983,
 Carnegie Mellon University). Gaussian is a federally registered
 trademark of Gaussian, Inc.
  
 This software contains proprietary and confidential information,
 including trade secrets, belonging to Gaussian, Inc.
  
 This software is provided under written license and may be
 used, copied, transmitted, or stored only in accord with that
 written license.
  
 The following legend is applicable only to US Government
 contracts under FAR:
  
                    RESTRICTED RIGHTS LEGEND
  
 Use, reproduction and disclosure by the US Government is
 subject to restrictions as set forth in subparagraphs (a)
 and (c) of the Commercial Computer Software - Restricted
 Rights clause in FAR 52.227-19.
  
 Gaussian, Inc.
 340 Quinnipiac St., Bldg. 40, Wallingford CT 06492
  
  
 ---------------------------------------------------------------
 Warning -- This program may not be used in any manner that
 competes with the business of Gaussian, Inc. or will provide
 assistance to any competitor of Gaussian, Inc.  The licensee
 of this program is prohibited from giving any competitor of
 Gaussian, Inc. access to this program.  By using this program,
 the user acknowledges that Gaussian, Inc. is engaged in the
 business of creating and licensing software in the field of
 computational chemistry and represents and warrants to the
 licensee that it is not a competitor of Gaussian, Inc. and that
 it will not use this program in any manner prohibited above.
 ---------------------------------------------------------------
  

 Cite this work as:
 Gaussian 16, Revision A.03,
 M. J. Frisch, G. W. Trucks, H. B. Schlegel, G. E. Scuseria, 
 M. A. Robb, J. R. Cheeseman, G. Scalmani, V. Barone, 
 G. A. Petersson, H. Nakatsuji, X. Li, M. Caricato, A. V. Marenich, 
 J. Bloino, B. G. Janesko, R. Gomperts, B. Mennucci, H. P. Hratchian, 
 J. V. Ortiz, A. F. Izmaylov, J. L. Sonnenberg, D. Williams-Young, 
 F. Ding, F. Lipparini, F. Egidi, J. Goings, B. Peng, A. Petrone, 
 T. Henderson, D. Ranasinghe, V. G. Zakrzewski, J. Gao, N. Rega, 
 G. Zheng, W. Liang, M. Hada, M. Ehara, K. Toyota, R. Fukuda, 
 J. Hasegawa, M. Ishida, T. Nakajima, Y. Honda, O. Kitao, H. Nakai, 
 T. Vreven, K. Throssell, J. A. Montgomery, Jr., J. E. Peralta, 
 F. Ogliaro, M. J. Bearpark, J. J. Heyd, E. N. Brothers, K. N. Kudin, 
 V. N. Staroverov, T. A. Keith, R. Kobayashi, J. Normand, 
 K. Raghavachari, A. P. Rendell, J. C. Burant, S. S. Iyengar, 
 J. Tomasi, M. Cossi, J. M. Millam, M. Klene, C. Adamo, R. Cammi, 
 J. W. Ochterski, R. L. Martin, K. Morokuma, O. Farkas, 
 J. B. Foresman, and D. J. Fox, Gaussian, Inc., Wallingford CT, 2016.
 
 ******************************************
 Gaussian 16:  EM64L-G16RevA.03 25-Dec-2016
                 6-Mar-2025 
 ******************************************
 %nproc=8
 Will use up to    8 processors via shared memory.
 %mem=4000MB
 --------------------------------------------------------------------
 #opt=(noeigen,calcfc,ts,recalc=5,maxcyc=200) freq B3LYP/SVP em=GD3BJ
 --------------------------------------------------------------------
 1/5=1,6=200,10=4,11=1,18=20,26=3,38=1,71=5/1,3;
 2/9=110,12=2,17=6,18=5,40=1/2;
 3/5=18,7=101,11=2,25=1,30=1,71=2,74=-5,124=41,140=1/1,2,3;
 4//1;
 5/5=2,38=5/2;
 8/6=4,10=90,11=11/1;
 11/6=1,8=1,9=11,15=111,16=1/1,2,10;
 10/6=1,13=1/2;
 6/7=2,8=2,9=2,10=2,28=1/1;
 7/10=1,18=20,25=1/1,2,3,16;
 1/5=1,6=200,10=4,11=1,18=20,26=3,71=5/3(2);
 2/9=110/2;
 99//99;
 2/9=110/2;
 3/5=18,7=101,11=2,25=1,30=1,71=1,74=-5,124=41/1,2,3;
 4/5=5,16=3,69=1/1;
 5/5=2,38=5/2;
 7//1,2,3,16;
 1/5=1,6=200,11=1,18=20,26=3,71=5/3(-5);
 2/9=110/2;
 6/7=2,8=2,9=2,10=2,19=2,28=1/1;
 99/9=1/99;
 -----------
 ts-1446.gjf
 -----------
 Symbolic Z-matrix:
 Charge =  0 Multiplicity = 1
 O                    -0.41819  -5.05818  -3.70878 
 Cl                   -0.42238  -4.17895  -5.70505 
 H                     0.56314  -5.11078  -3.69577 
 
 Add virtual bond connecting atoms Cl2        and O1         Dist= 4.12D+00.

 GradGradGradGradGradGradGradGradGradGradGradGradGradGradGradGradGradGrad
 Berny optimization.
 Initialization pass.
                           ----------------------------
                           !    Initial Parameters    !
                           ! (Angstroms and Degrees)  !
 --------------------------                            --------------------------
 ! Name  Definition              Value          Derivative Info.                !
 --------------------------------------------------------------------------------
 ! R1    R(1,2)                  2.1813         calculate D2E/DX2 analytically  !
 ! R2    R(1,3)                  0.9828         calculate D2E/DX2 analytically  !
 ! A1    A(2,1,3)               92.0399         calculate D2E/DX2 analytically  !
 --------------------------------------------------------------------------------
 Trust Radius=3.00D-01 FncErr=1.00D-07 GrdErr=1.00D-06 EigMax=2.50D+02 EigMin=1.00D-04
 Number of steps in this run=    100 maximum allowed number of steps=    100.
 Search for a saddle point of order  1.
 GradGradGradGradGradGradGradGradGradGradGradGradGradGradGradGradGradGrad

                          Input orientation:                          
 ---------------------------------------------------------------------
 Center     Atomic      Atomic             Coordinates (Angstroms)
 Number     Number       Type             X           Y           Z
 ---------------------------------------------------------------------
      1          8           0       -0.418190   -5.058178   -3.708776
      2         17           0       -0.422377   -4.178951   -5.705053
      3          1           0        0.563143   -5.110777   -3.695774
 ---------------------------------------------------------------------
                    Distance matrix (angstroms):
                    1          2          3
     1  O    0.000000
     2  Cl   2.181325   0.000000
     3  H    0.982828   2.424201   0.000000
 Stoichiometry    ClHO
 Framework group  CS[SG(ClHO)]
 Deg. of freedom     3
 Full point group                 CS      NOp   2
 Largest Abelian subgroup         CS      NOp   2
 Largest concise Abelian subgroup C1      NOp   1
                         Standard orientation:                         
 ---------------------------------------------------------------------
 Center     Atomic      Atomic             Coordinates (Angstroms)
 Number     Number       Type             X           Y           Z
 ---------------------------------------------------------------------
      1          8           0        0.037777    1.424905    0.000000
      2         17           0        0.037777   -0.756420   -0.000000
      3          1           0       -0.944428    1.459889    0.000000
 ---------------------------------------------------------------------
 Rotational constants (GHZ):         554.0223937           9.2593283           9.1071217
 Standard basis: SVP (5D, 7F)
 There are    29 symmetry adapted cartesian basis functions of A'  symmetry.
 There are    10 symmetry adapted cartesian basis functions of A"  symmetry.
 There are    27 symmetry adapted basis functions of A'  symmetry.
 There are    10 symmetry adapted basis functions of A"  symmetry.
    37 basis functions,    69 primitive gaussians,    39 cartesian basis functions
    13 alpha electrons       13 beta electrons
       nuclear repulsion energy        41.0111389407 Hartrees.
 NAtoms=    3 NActive=    3 NUniq=    3 SFac= 1.00D+00 NAtFMM=   60 NAOKFM=F Big=F
 Integral buffers will be    131072 words long.
 Raffenetti 2 integral format.
 Two-electron integral symmetry is turned on.
 Nuclear repulsion after empirical dispersion term =       41.0094958506 Hartrees.
 One-electron integrals computed using PRISM.
 NBasis=    37 RedAO= T EigKep=  5.20D-02  NBF=    27    10
 NBsUse=    37 1.00D-06 EigRej= -1.00D+00 NBFU=    27    10
 ExpMin= 1.22D-01 ExpMax= 1.04D+04 ExpMxC= 1.57D+03 IAcc=3 IRadAn=         5 AccDes= 0.00D+00
 Harris functional with IExCor=  402 and IRadAn=       5 diagonalized for initial guess.
 HarFok:  IExCor=  402 AccDes= 0.00D+00 IRadAn=         5 IDoV= 1 UseB2=F ITyADJ=14
 ICtDFT=  3500011 ScaDFX=  1.000000  1.000000  1.000000  1.000000
 FoFCou: FMM=F IPFlag=           0 FMFlag=      100000 FMFlg1=           0
         NFxFlg=           0 DoJE=T BraDBF=F KetDBF=T FulRan=T
         wScrn=  0.000000 ICntrl=       500 IOpCl=  0 I1Cent=   200000004 NGrid=           0
         NMat0=    1 NMatS0=      1 NMatT0=    0 NMatD0=    1 NMtDS0=    0 NMtDT0=    0
 Petite list used in FoFCou.
 Initial guess orbital symmetries:
       Occupied  (A') (A') (A') (A') (A') (A") (A') (A') (A') (A')
                 (A") (A') (A")
       Virtual   (A') (A') (A') (A') (A') (A") (A') (A') (A") (A')
                 (A") (A') (A') (A") (A') (A') (A") (A') (A') (A")
                 (A') (A") (A') (A')
 The electronic state of the initial guess is 1-A'.
 Keep R1 ints in memory in symmetry-blocked form, NReq=7153137.
 Requested convergence on RMS density matrix=1.00D-08 within 128 cycles.
 Requested convergence on MAX density matrix=1.00D-06.
 Requested convergence on             energy=1.00D-06.
 No special actions if energy rises.
 Integral accuracy reduced to 1.0D-05 until final iterations.
 Initial convergence to 1.0D-05 achieved.  Increase integral accuracy.
 SCF Done:  E(RB3LYP) =  -535.718897966     A.U. after   13 cycles
            NFock= 13  Conv=0.67D-08     -V/T= 2.0032
 DoSCS=F DFT=T ScalE2(SS,OS)=  1.000000  1.000000
 Range of M.O.s used for correlation:     1    37
 NBasis=    37 NAE=    13 NBE=    13 NFC=     0 NFV=     0
 NROrb=     37 NOA=    13 NOB=    13 NVA=    24 NVB=    24
 Symmetrizing basis deriv contribution to polar:
 IMax=3 JMax=2 DiffMx= 0.00D+00
 G2DrvN: will do     4 centers at a time, making    1 passes.
 Calling FoFCou, ICntrl=  3107 FMM=F I1Cent=   0 AccDes= 0.00D+00.
 End of G2Drv F.D. properties file   721 does not exist.
 End of G2Drv F.D. properties file   722 does not exist.
 End of G2Drv F.D. properties file   788 does not exist.
          IDoAtm=111
          Differentiating once with respect to nuclear coordinates.
 Keep R1 ints in memory in symmetry-blocked form, NReq=7127942.
          There are    12 degrees of freedom in the 1st order CPHF.  IDoFFX=6 NUNeed=     0.
      6 vectors produced by pass  0 Test12= 2.60D-15 8.33D-09 XBig12= 7.47D-02 1.77D-01.
 AX will form     6 AO Fock derivatives at one time.
      6 vectors produced by pass  1 Test12= 2.60D-15 8.33D-09 XBig12= 1.12D-01 1.65D-01.
      6 vectors produced by pass  2 Test12= 2.60D-15 8.33D-09 XBig12= 1.62D-03 1.71D-02.
      6 vectors produced by pass  3 Test12= 2.60D-15 8.33D-09 XBig12= 1.15D-04 3.34D-03.
      6 vectors produced by pass  4 Test12= 2.60D-15 8.33D-09 XBig12= 2.35D-06 6.48D-04.
      6 vectors produced by pass  5 Test12= 2.60D-15 8.33D-09 XBig12= 7.05D-09 2.79D-05.
      3 vectors produced by pass  6 Test12= 2.60D-15 8.33D-09 XBig12= 6.60D-12 1.08D-06.
      1 vectors produced by pass  7 Test12= 2.60D-15 8.33D-09 XBig12= 3.51D-15 1.76D-08.
 InvSVY:  IOpt=1 It=  1 EMax= 3.33D-16
 Solved reduced A of dimension    40 with     6 vectors.
 End of Minotr F.D. properties file   721 does not exist.
 End of Minotr F.D. properties file   722 does not exist.
 End of Minotr F.D. properties file   788 does not exist.

 **********************************************************************

            Population analysis using the SCF density.

 **********************************************************************

 Orbital symmetries:
       Occupied  (A') (A') (A') (A') (A') (A") (A') (A') (A') (A')
                 (A") (A') (A")
       Virtual   (A') (A') (A') (A') (A') (A") (A') (A') (A") (A')
                 (A") (A') (A') (A") (A') (A') (A") (A') (A') (A")
                 (A') (A') (A") (A')
 The electronic state is 1-A'.
 Alpha  occ. eigenvalues -- -101.54867 -19.22343  -9.49671  -7.27016  -7.25428
 Alpha  occ. eigenvalues --   -7.25408  -0.98943  -0.80418  -0.47975  -0.40251
 Alpha  occ. eigenvalues --   -0.35955  -0.33001  -0.31340
 Alpha virt. eigenvalues --   -0.19295   0.05095   0.46291   0.55873   0.66862
 Alpha virt. eigenvalues --    0.71354   0.71692   0.76465   0.76500   0.82654
 Alpha virt. eigenvalues --    0.82963   0.89884   0.94620   0.96309   1.01506
 Alpha virt. eigenvalues --    1.33841   1.39834   1.46044   2.12932   2.58285
 Alpha virt. eigenvalues --    2.65083   2.89808   2.91773   3.62681
          Condensed to atoms (all electrons):
               1          2          3
     1  O    7.786112   0.146421   0.280678
     2  Cl   0.146421  16.854241  -0.002905
     3  H    0.280678  -0.002905   0.511258
 Mulliken charges:
               1
     1  O   -0.213211
     2  Cl   0.002243
     3  H    0.210969
 Sum of Mulliken charges =   0.00000
 Mulliken charges with hydrogens summed into heavy atoms:
               1
     1  O   -0.002243
     2  Cl   0.002243
 APT charges:
               1
     1  O   -0.388424
     2  Cl  -0.005051
     3  H    0.393474
 Sum of APT charges =   0.00000
 APT charges with hydrogens summed into heavy atoms:
               1
     1  O    0.005051
     2  Cl  -0.005051
 Electronic spatial extent (au):  <R**2>=            141.7569
 Charge=              0.0000 electrons
 Dipole moment (field-independent basis, Debye):
    X=             -1.6887    Y=              0.0634    Z=              0.0000  Tot=              1.6898
 Quadrupole moment (field-independent basis, Debye-Ang):
   XX=            -16.6651   YY=            -15.7433   ZZ=            -18.8290
   XY=             -2.6960   XZ=             -0.0000   YZ=              0.0000
 Traceless Quadrupole moment (field-independent basis, Debye-Ang):
   XX=              0.4141   YY=              1.3358   ZZ=             -1.7499
   XY=             -2.6960   XZ=             -0.0000   YZ=              0.0000
 Octapole moment (field-independent basis, Debye-Ang**2):
  XXX=             -2.2543  YYY=              1.5694  ZZZ=             -0.0000  XYY=             -4.1626
  XXY=              3.6741  XXZ=             -0.0000  XZZ=             -0.2423  YZZ=              0.5323
  YYZ=             -0.0000  XYZ=             -0.0000
 Hexadecapole moment (field-independent basis, Debye-Ang**3):
 XXXX=            -17.1408 YYYY=           -112.6405 ZZZZ=            -16.8913 XXXY=             -0.3868
 XXXZ=             -0.0000 YYYX=             -4.0725 YYYZ=             -0.0000 ZZZX=              0.0000
 ZZZY=             -0.0000 XXYY=            -20.7327 XXZZ=             -5.9953 YYZZ=            -24.9539
 XXYZ=             -0.0000 YYXZ=             -0.0000 ZZXY=              0.6277
 N-N= 4.100949585058D+01 E-N=-1.354715674196D+03  KE= 5.339997733207D+02
 Symmetry A'   KE= 4.832477300252D+02
 Symmetry A"   KE= 5.075204329545D+01
  Exact polarizability:   0.000   0.000   0.000   0.000   0.000   0.000
 Approx polarizability:  14.673  -0.919  91.328  -0.000   0.000   9.606
 Calling FoFJK, ICntrl=    100147 FMM=F ISym2X=1 I1Cent= 0 IOpClX= 0 NMat=1 NMatS=1 NMatT=0.
 ***** Axes restored to original set *****
 -------------------------------------------------------------------
 Center     Atomic                   Forces (Hartrees/Bohr)
 Number     Number              X              Y              Z
 -------------------------------------------------------------------
      1        8           0.003425428    0.026349794   -0.060212092
      2       17           0.000237475   -0.026642611    0.060479748
      3        1          -0.003662902    0.000292816   -0.000267656
 -------------------------------------------------------------------
 Cartesian Forces:  Max     0.060479748 RMS     0.031114128
 FormGI is forming the generalized inverse of G from B-inverse, IUseBI=4.

 GradGradGradGradGradGradGradGradGradGradGradGradGradGradGradGradGradGrad
 Berny optimization.
 Internal  Forces:  Max     0.066088908 RMS     0.038216276
 Search for a saddle point.
 Step number   1 out of a maximum of  100
 All quantities printed in internal units (Hartrees-Bohrs-Radians)
 Swapping is turned off.
 Second derivative matrix not updated -- analytic derivatives used.
 The second derivative matrix:
                          R1        R2        A1
           R1           0.00859
           R2          -0.00444   0.48129
           A1           0.01792  -0.00119   0.11414
 ITU=  0
     Eigenvalues ---    0.00559   0.11709   0.48134
 Eigenvectors required to have negative eigenvalues:
                          R1        A1        R2
   1                   -0.98663   0.16277  -0.00879
 RFO step:  Lambda0=6.802071364D-02 Lambda=-1.08338075D-03.
 Linear search not attempted -- option 19 set.
 Iteration  1 RMS(Cart)=  0.07708269 RMS(Int)=  0.00477439
 Iteration  2 RMS(Cart)=  0.00355518 RMS(Int)=  0.00000316
 Iteration  3 RMS(Cart)=  0.00000388 RMS(Int)=  0.00000000
 Iteration  4 RMS(Cart)=  0.00000000 RMS(Int)=  0.00000000
 ClnCor:  largest displacement from symmetrization is 4.71D-15 for atom     3.
 Variable       Old X    -DE/DX   Delta X   Delta X   Delta X     New X
                                 (Linear)    (Quad)   (Total)
    R1        4.12211  -0.06609   0.00000   0.07845   0.07845   4.20056
    R2        1.85728  -0.00368   0.00000  -0.00597  -0.00597   1.85131
    A1        1.60640  -0.00045   0.00000  -0.10909  -0.10909   1.49731
         Item               Value     Threshold  Converged?
 Maximum Force            0.066089     0.000450     NO 
 RMS     Force            0.038216     0.000300     NO 
 Maximum Displacement     0.083518     0.001800     NO 
 RMS     Displacement     0.077993     0.001200     NO 
 Predicted change in Energy= 5.676277D-03
 GradGradGradGradGradGradGradGradGradGradGradGradGradGradGradGradGradGrad

                          Input orientation:                          
 ---------------------------------------------------------------------
 Center     Atomic      Atomic             Coordinates (Angstroms)
 Number     Number       Type             X           Y           Z
 ---------------------------------------------------------------------
      1          8           0       -0.426828   -5.075949   -3.667482
      2         17           0       -0.400642   -4.181267   -5.702151
      3          1           0        0.550046   -5.090691   -3.739970
 ---------------------------------------------------------------------
                    Distance matrix (angstroms):
                    1          2          3
     1  O    0.000000
     2  Cl   2.222840   0.000000
     3  H    0.979671   2.362417   0.000000
 Stoichiometry    ClHO
 Framework group  CS[SG(ClHO)]
 Deg. of freedom     3
 Full point group                 CS      NOp   2
 Largest Abelian subgroup         CS      NOp   2
 Largest concise Abelian subgroup C1      NOp   1
                         Standard orientation:                         
 ---------------------------------------------------------------------
 Center     Atomic      Atomic             Coordinates (Angstroms)
 Number     Number       Type             X           Y           Z
 ---------------------------------------------------------------------
      1          8           0        0.037578    1.456162   -0.000000
      2         17           0        0.037578   -0.766678    0.000000
      3          1           0       -0.939449    1.384236   -0.000000
 ---------------------------------------------------------------------
 Rotational constants (GHZ):         556.6734464           8.9685483           8.8263473
 Standard basis: SVP (5D, 7F)
 There are    29 symmetry adapted cartesian basis functions of A'  symmetry.
 There are    10 symmetry adapted cartesian basis functions of A"  symmetry.
 There are    27 symmetry adapted basis functions of A'  symmetry.
 There are    10 symmetry adapted basis functions of A"  symmetry.
    37 basis functions,    69 primitive gaussians,    39 cartesian basis functions
    13 alpha electrons       13 beta electrons
       nuclear repulsion energy        40.5058778239 Hartrees.
 NAtoms=    3 NActive=    3 NUniq=    3 SFac= 1.00D+00 NAtFMM=   60 NAOKFM=F Big=F
 Integral buffers will be    131072 words long.
 Raffenetti 2 integral format.
 Two-electron integral symmetry is turned on.
 Nuclear repulsion after empirical dispersion term =       40.5042123390 Hartrees.
 One-electron integrals computed using PRISM.
 NBasis=    37 RedAO= T EigKep=  5.21D-02  NBF=    27    10
 NBsUse=    37 1.00D-06 EigRej= -1.00D+00 NBFU=    27    10
 Initial guess from the checkpoint file:  "/tmp/Gau-5448.chk"
 B after Tr=    -0.000000    0.000000   -0.000000
         Rot=    0.999999   -0.000000    0.000000   -0.001135 Ang=  -0.13 deg.
 Initial guess orbital symmetries:
       Occupied  (A') (A') (A') (A') (A') (A") (A') (A') (A') (A')
                 (A") (A') (A")
       Virtual   (A') (A') (A') (A') (A') (A") (A') (A') (A") (A')
                 (A") (A') (A') (A") (A') (A') (A") (A') (A') (A")
                 (A') (A') (A") (A')
 ExpMin= 1.22D-01 ExpMax= 1.04D+04 ExpMxC= 1.57D+03 IAcc=2 IRadAn=         4 AccDes= 0.00D+00
 Harris functional with IExCor=  402 and IRadAn=       4 diagonalized for initial guess.
 HarFok:  IExCor=  402 AccDes= 0.00D+00 IRadAn=         4 IDoV= 1 UseB2=F ITyADJ=14
 ICtDFT=  3500011 ScaDFX=  1.000000  1.000000  1.000000  1.000000
 FoFCou: FMM=F IPFlag=           0 FMFlag=      100000 FMFlg1=           0
         NFxFlg=           0 DoJE=T BraDBF=F KetDBF=T FulRan=T
         wScrn=  0.000000 ICntrl=       500 IOpCl=  0 I1Cent=   200000004 NGrid=           0
         NMat0=    1 NMatS0=      1 NMatT0=    0 NMatD0=    1 NMtDS0=    0 NMtDT0=    0
 Petite list used in FoFCou.
 Keep R1 ints in memory in symmetry-blocked form, NReq=7153137.
 Requested convergence on RMS density matrix=1.00D-08 within 128 cycles.
 Requested convergence on MAX density matrix=1.00D-06.
 Requested convergence on             energy=1.00D-06.
 No special actions if energy rises.
 Integral accuracy reduced to 1.0D-05 until final iterations.
 Initial convergence to 1.0D-05 achieved.  Increase integral accuracy.
 SCF Done:  E(RB3LYP) =  -535.713248136     A.U. after   13 cycles
            NFock= 13  Conv=0.33D-08     -V/T= 2.0032
 Calling FoFJK, ICntrl=      2127 FMM=F ISym2X=1 I1Cent= 0 IOpClX= 0 NMat=1 NMatS=1 NMatT=0.
 ***** Axes restored to original set *****
 -------------------------------------------------------------------
 Center     Atomic                   Forces (Hartrees/Bohr)
 Number     Number              X              Y              Z
 -------------------------------------------------------------------
      1        8           0.003310394    0.028027316   -0.064009274
      2       17          -0.003174165   -0.025812041    0.058963595
      3        1          -0.000136229   -0.002215275    0.005045679
 -------------------------------------------------------------------
 Cartesian Forces:  Max     0.064009274 RMS     0.031757945

 GradGradGradGradGradGradGradGradGradGradGradGradGradGradGradGradGradGrad
 Berny optimization.
 FormGI is forming the generalized inverse of G from B-inverse, IUseBI=4.
 Internal  Forces:  Max     0.064399171 RMS     0.037642225
 Search for a saddle point.
 Step number   2 out of a maximum of  100
 All quantities printed in internal units (Hartrees-Bohrs-Radians)
 Swapping is turned off.
 Update second derivatives using D2CorX and points    1    2
 The second derivative matrix:
                          R1        R2        A1
           R1           0.00623
           R2          -0.00502   0.48116
           A1           0.02024  -0.00059   0.11187
 ITU=  0  0
     Eigenvalues ---    0.00243   0.11561   0.48121
 Eigenvectors required to have negative eigenvalues:
                          R1        A1        R2
   1                    0.98328  -0.18183   0.01009
 RFO step:  Lambda0=6.640279551D-02 Lambda=-2.54707482D-05.
 Linear search not attempted -- option 19 set.
 Iteration  1 RMS(Cart)=  0.01236621 RMS(Int)=  0.00012218
 Iteration  2 RMS(Cart)=  0.00009163 RMS(Int)=  0.00000000
 Iteration  3 RMS(Cart)=  0.00000000 RMS(Int)=  0.00000000
 ClnCor:  largest displacement from symmetrization is 1.90D-15 for atom     3.
 Variable       Old X    -DE/DX   Delta X   Delta X   Delta X     New X
                                 (Linear)    (Quad)   (Total)
    R1        4.20056  -0.06440   0.00000   0.01188   0.01188   4.21244
    R2        1.85131  -0.00047   0.00000   0.00048   0.00048   1.85179
    A1        1.49731   0.01017   0.00000  -0.01727  -0.01727   1.48004
         Item               Value     Threshold  Converged?
 Maximum Force            0.064399     0.000450     NO 
 RMS     Force            0.037642     0.000300     NO 
 Maximum Displacement     0.013415     0.001800     NO 
 RMS     Displacement     0.012393     0.001200     NO 
 Predicted change in Energy= 9.536464D-04
 GradGradGradGradGradGradGradGradGradGradGradGradGradGradGradGradGradGrad

                          Input orientation:                          
 ---------------------------------------------------------------------
 Center     Atomic      Atomic             Coordinates (Angstroms)
 Number     Number       Type             X           Y           Z
 ---------------------------------------------------------------------
      1          8           0       -0.428181   -5.078720   -3.661042
      2         17           0       -0.397166   -4.181723   -5.701492
      3          1           0        0.547923   -5.087463   -3.747069
 ---------------------------------------------------------------------
                    Distance matrix (angstroms):
                    1          2          3
     1  O    0.000000
     2  Cl   2.229125   0.000000
     3  H    0.979927   2.352303   0.000000
 Stoichiometry    ClHO
 Framework group  CS[SG(ClHO)]
 Deg. of freedom     3
 Full point group                 CS      NOp   2
 Largest Abelian subgroup         CS      NOp   2
 Largest concise Abelian subgroup C1      NOp   1
                         Standard orientation:                         
 ---------------------------------------------------------------------
 Center     Atomic      Atomic             Coordinates (Angstroms)
 Number     Number       Type             X           Y           Z
 ---------------------------------------------------------------------
      1          8           0        0.037534    1.460921    0.000000
      2         17           0        0.037534   -0.768205    0.000000
      3          1           0       -0.938360    1.372113   -0.000000
 ---------------------------------------------------------------------
 Rotational constants (GHZ):         557.4852936           8.9257359           8.7850805
 Standard basis: SVP (5D, 7F)
 There are    29 symmetry adapted cartesian basis functions of A'  symmetry.
 There are    10 symmetry adapted cartesian basis functions of A"  symmetry.
 There are    27 symmetry adapted basis functions of A'  symmetry.
 There are    10 symmetry adapted basis functions of A"  symmetry.
    37 basis functions,    69 primitive gaussians,    39 cartesian basis functions
    13 alpha electrons       13 beta electrons
       nuclear repulsion energy        40.4298317782 Hartrees.
 NAtoms=    3 NActive=    3 NUniq=    3 SFac= 1.00D+00 NAtFMM=   60 NAOKFM=F Big=F
 Integral buffers will be    131072 words long.
 Raffenetti 2 integral format.
 Two-electron integral symmetry is turned on.
 Nuclear repulsion after empirical dispersion term =       40.4281633563 Hartrees.
 One-electron integrals computed using PRISM.
 NBasis=    37 RedAO= T EigKep=  5.22D-02  NBF=    27    10
 NBsUse=    37 1.00D-06 EigRej= -1.00D+00 NBFU=    27    10
 Initial guess from the checkpoint file:  "/tmp/Gau-5448.chk"
 B after Tr=     0.000000   -0.000000    0.000000
         Rot=    1.000000    0.000000   -0.000000   -0.000172 Ang=  -0.02 deg.
 Initial guess orbital symmetries:
       Occupied  (A') (A') (A') (A') (A') (A") (A') (A') (A') (A')
                 (A") (A') (A")
       Virtual   (A') (A') (A') (A') (A') (A") (A') (A') (A") (A')
                 (A") (A') (A') (A") (A') (A') (A") (A') (A') (A")
                 (A') (A') (A") (A')
 Keep R1 ints in memory in symmetry-blocked form, NReq=7153137.
 Requested convergence on RMS density matrix=1.00D-08 within 128 cycles.
 Requested convergence on MAX density matrix=1.00D-06.
 Requested convergence on             energy=1.00D-06.
 No special actions if energy rises.
 SCF Done:  E(RB3LYP) =  -535.712295572     A.U. after    9 cycles
            NFock=  9  Conv=0.99D-08     -V/T= 2.0032
 Calling FoFJK, ICntrl=      2127 FMM=F ISym2X=1 I1Cent= 0 IOpClX= 0 NMat=1 NMatS=1 NMatT=0.
 ***** Axes restored to original set *****
 -------------------------------------------------------------------
 Center     Atomic                   Forces (Hartrees/Bohr)
 Number     Number              X              Y              Z
 -------------------------------------------------------------------
      1        8           0.003843246    0.028213175   -0.064489162
      2       17          -0.003681642   -0.025644137    0.058637334
      3        1          -0.000161605   -0.002569038    0.005851828
 -------------------------------------------------------------------
 Cartesian Forces:  Max     0.064489162 RMS     0.031832878

 GradGradGradGradGradGradGradGradGradGradGradGradGradGradGradGradGradGrad
 Berny optimization.
 FormGI is forming the generalized inverse of G from B-inverse, IUseBI=4.
 Internal  Forces:  Max     0.064045015 RMS     0.037598077
 Search for a saddle point.
 Step number   3 out of a maximum of  100
 All quantities printed in internal units (Hartrees-Bohrs-Radians)
 Swapping is turned off.
 Update second derivatives using D2CorX and points    1    2    3
 The second derivative matrix:
                          R1        R2        A1
           R1           0.00372
           R2          -0.00527   0.48113
           A1           0.02292  -0.00033   0.10900
 ITU=  0  0  0
     Eigenvalues ---   -0.00111   0.11377   0.48119
 Eigenvectors required to have negative eigenvalues:
                          R1        A1        R2
   1                    0.97896  -0.20377   0.01056
 RFO step:  Lambda0=6.455336742D-02 Lambda=-2.03905269D-05.
 Linear search not attempted -- option 19 set.
 Maximum step size (   0.300) exceeded in Quadratic search.
    -- Step size scaled by   0.303
 Iteration  1 RMS(Cart)=  0.08223786 RMS(Int)=  0.05367057
 Iteration  2 RMS(Cart)=  0.04280961 RMS(Int)=  0.00005751
 Iteration  3 RMS(Cart)=  0.00007958 RMS(Int)=  0.00000000
 Iteration  4 RMS(Cart)=  0.00000000 RMS(Int)=  0.00000000
 ClnCor:  largest displacement from symmetrization is 1.60D-15 for atom     3.
 Variable       Old X    -DE/DX   Delta X   Delta X   Delta X     New X
                                 (Linear)    (Quad)   (Total)
    R1        4.21244  -0.06405   0.00000   0.29284   0.29284   4.50527
    R2        1.85179  -0.00065   0.00000   0.00318   0.00318   1.85497
    A1        1.48004   0.01178   0.00000  -0.06509  -0.06509   1.41495
         Item               Value     Threshold  Converged?
 Maximum Force            0.064045     0.000450     NO 
 RMS     Force            0.037598     0.000300     NO 
 Maximum Displacement     0.140251     0.001800     NO 
 RMS     Displacement     0.120100     0.001200     NO 
 Predicted change in Energy= 1.947442D-02
 GradGradGradGradGradGradGradGradGradGradGradGradGradGradGradGradGradGrad

                          Input orientation:                          
 ---------------------------------------------------------------------
 Center     Atomic      Atomic             Coordinates (Angstroms)
 Number     Number       Type             X           Y           Z
 ---------------------------------------------------------------------
      1          8           0       -0.424478   -5.108655   -3.593461
      2         17           0       -0.398837   -4.148963   -5.775710
      3          1           0        0.545892   -5.090289   -3.740432
 ---------------------------------------------------------------------
                    Distance matrix (angstroms):
                    1          2          3
     1  O    0.000000
     2  Cl   2.384088   0.000000
     3  H    0.981609   2.433303   0.000000
 Stoichiometry    ClHO
 Framework group  CS[SG(ClHO)]
 Deg. of freedom     3
 Full point group                 CS      NOp   2
 Largest Abelian subgroup         CS      NOp   2
 Largest concise Abelian subgroup C1      NOp   1
                         Standard orientation:                         
 ---------------------------------------------------------------------
 Center     Atomic      Atomic             Coordinates (Angstroms)
 Number     Number       Type             X           Y           Z
 ---------------------------------------------------------------------
      1          8           0        0.037297    1.564687    0.000000
      2         17           0        0.037297   -0.819401   -0.000000
      3          1           0       -0.932416    1.412329    0.000000
 ---------------------------------------------------------------------
 Rotational constants (GHZ):         563.0511961           7.8248000           7.7175482
 Standard basis: SVP (5D, 7F)
 There are    29 symmetry adapted cartesian basis functions of A'  symmetry.
 There are    10 symmetry adapted cartesian basis functions of A"  symmetry.
 There are    27 symmetry adapted basis functions of A'  symmetry.
 There are    10 symmetry adapted basis functions of A"  symmetry.
    37 basis functions,    69 primitive gaussians,    39 cartesian basis functions
    13 alpha electrons       13 beta electrons
       nuclear repulsion energy        38.1966213247 Hartrees.
 NAtoms=    3 NActive=    3 NUniq=    3 SFac= 1.00D+00 NAtFMM=   60 NAOKFM=F Big=F
 Integral buffers will be    131072 words long.
 Raffenetti 2 integral format.
 Two-electron integral symmetry is turned on.
 Nuclear repulsion after empirical dispersion term =       38.1949555844 Hartrees.
 One-electron integrals computed using PRISM.
 NBasis=    37 RedAO= T EigKep=  5.40D-02  NBF=    27    10
 NBsUse=    37 1.00D-06 EigRej= -1.00D+00 NBFU=    27    10
 Initial guess from the checkpoint file:  "/tmp/Gau-5448.chk"
 B after Tr=     0.000000   -0.000000   -0.000000
         Rot=    1.000000    0.000000   -0.000000    0.000750 Ang=   0.09 deg.
 Initial guess orbital symmetries:
       Occupied  (A') (A') (A') (A') (A') (A") (A') (A') (A') (A')
                 (A") (A') (A")
       Virtual   (A') (A') (A') (A') (A') (A") (A') (A') (A") (A')
                 (A") (A') (A') (A") (A') (A') (A") (A') (A') (A")
                 (A') (A') (A") (A')
 ExpMin= 1.22D-01 ExpMax= 1.04D+04 ExpMxC= 1.57D+03 IAcc=2 IRadAn=         4 AccDes= 0.00D+00
 Harris functional with IExCor=  402 and IRadAn=       4 diagonalized for initial guess.
 HarFok:  IExCor=  402 AccDes= 0.00D+00 IRadAn=         4 IDoV= 1 UseB2=F ITyADJ=14
 ICtDFT=  3500011 ScaDFX=  1.000000  1.000000  1.000000  1.000000
 FoFCou: FMM=F IPFlag=           0 FMFlag=      100000 FMFlg1=           0
         NFxFlg=           0 DoJE=T BraDBF=F KetDBF=T FulRan=T
         wScrn=  0.000000 ICntrl=       500 IOpCl=  0 I1Cent=   200000004 NGrid=           0
         NMat0=    1 NMatS0=      1 NMatT0=    0 NMatD0=    1 NMtDS0=    0 NMtDT0=    0
 Petite list used in FoFCou.
 Keep R1 ints in memory in symmetry-blocked form, NReq=7153137.
 Requested convergence on RMS density matrix=1.00D-08 within 128 cycles.
 Requested convergence on MAX density matrix=1.00D-06.
 Requested convergence on             energy=1.00D-06.
 No special actions if energy rises.
 Integral accuracy reduced to 1.0D-05 until final iterations.
 Initial convergence to 1.0D-05 achieved.  Increase integral accuracy.
 SCF Done:  E(RB3LYP) =  -535.692986965     A.U. after   12 cycles
            NFock= 12  Conv=0.46D-08     -V/T= 2.0032
 Calling FoFJK, ICntrl=      2127 FMM=F ISym2X=1 I1Cent= 0 IOpClX= 0 NMat=1 NMatS=1 NMatT=0.
 ***** Axes restored to original set *****
 -------------------------------------------------------------------
 Center     Atomic                   Forces (Hartrees/Bohr)
 Number     Number              X              Y              Z
 -------------------------------------------------------------------
      1        8           0.003495762    0.027343440   -0.062476296
      2       17          -0.003211257   -0.024812457    0.056697560
      3        1          -0.000284505   -0.002530983    0.005778736
 -------------------------------------------------------------------
 Cartesian Forces:  Max     0.062476296 RMS     0.030810596

 GradGradGradGradGradGradGradGradGradGradGradGradGradGradGradGradGradGrad
 Berny optimization.
 FormGI is forming the generalized inverse of G from B-inverse, IUseBI=4.
 Internal  Forces:  Max     0.061921031 RMS     0.036367964
 Search for a saddle point.
 Step number   4 out of a maximum of  100
 All quantities printed in internal units (Hartrees-Bohrs-Radians)
 Swapping is turned off.
 Update second derivatives using D2CorX and points    1    2    3    4
 The second derivative matrix:
                          R1        R2        A1
           R1          -0.00167
           R2          -0.00355   0.48059
           A1           0.02495  -0.00081   0.10797
 ITU=  0  0  0  0
     Eigenvalues ---   -0.00710   0.11337   0.48062
 Eigenvectors required to have negative eigenvalues:
                          R1        A1        R2
   1                    0.97728  -0.21183   0.00676
 RFO step:  Lambda0=5.950784827D-02 Lambda=-3.24065482D-05.
 Linear search not attempted -- option 19 set.
 Maximum step size (   0.300) exceeded in Quadratic search.
    -- Step size scaled by   0.317
 Iteration  1 RMS(Cart)=  0.08298803 RMS(Int)=  0.05322256
 Iteration  2 RMS(Cart)=  0.04263898 RMS(Int)=  0.00004999
 Iteration  3 RMS(Cart)=  0.00007067 RMS(Int)=  0.00000000
 Iteration  4 RMS(Cart)=  0.00000000 RMS(Int)=  0.00000000
 ClnCor:  largest displacement from symmetrization is 2.09D-15 for atom     3.
 Variable       Old X    -DE/DX   Delta X   Delta X   Delta X     New X
                                 (Linear)    (Quad)   (Total)
    R1        4.50527  -0.06192   0.00000   0.29203   0.29203   4.79730
    R2        1.85497  -0.00119   0.00000   0.00151   0.00151   1.85648
    A1        1.41495   0.01150   0.00000  -0.06868  -0.06868   1.34627
         Item               Value     Threshold  Converged?
 Maximum Force            0.061921     0.000450     NO 
 RMS     Force            0.036368     0.000300     NO 
 Maximum Displacement     0.138048     0.001800     NO 
 RMS     Displacement     0.119822     0.001200     NO 
 Predicted change in Energy= 1.855650D-02
 GradGradGradGradGradGradGradGradGradGradGradGradGradGradGradGradGradGrad

                          Input orientation:                          
 ---------------------------------------------------------------------
 Center     Atomic      Atomic             Coordinates (Angstroms)
 Number     Number       Type             X           Y           Z
 ---------------------------------------------------------------------
      1          8           0       -0.418217   -5.139038   -3.525141
      2         17           0       -0.399417   -4.116768   -5.848762
      3          1           0        0.540210   -5.092101   -3.735701
 ---------------------------------------------------------------------
                    Distance matrix (angstroms):
                    1          2          3
     1  O    0.000000
     2  Cl   2.538622   0.000000
     3  H    0.982406   2.509821   0.000000
 Stoichiometry    ClHO
 Framework group  CS[SG(ClHO)]
 Deg. of freedom     3
 Full point group                 CS      NOp   2
 Largest Abelian subgroup         CS      NOp   2
 Largest concise Abelian subgroup C1      NOp   1
                         Standard orientation:                         
 ---------------------------------------------------------------------
 Center     Atomic      Atomic             Coordinates (Angstroms)
 Number     Number       Type             X           Y           Z
 ---------------------------------------------------------------------
      1          8           0        0.036836    1.668281    0.000000
      2         17           0        0.036836   -0.870341   -0.000000
      3          1           0       -0.920911    1.449555    0.000000
 ---------------------------------------------------------------------
 Rotational constants (GHZ):         575.7855011           6.9181950           6.8360582
 Standard basis: SVP (5D, 7F)
 There are    29 symmetry adapted cartesian basis functions of A'  symmetry.
 There are    10 symmetry adapted cartesian basis functions of A"  symmetry.
 There are    27 symmetry adapted basis functions of A'  symmetry.
 There are    10 symmetry adapted basis functions of A"  symmetry.
    37 basis functions,    69 primitive gaussians,    39 cartesian basis functions
    13 alpha electrons       13 beta electrons
       nuclear repulsion energy        36.2428312300 Hartrees.
 NAtoms=    3 NActive=    3 NUniq=    3 SFac= 1.00D+00 NAtFMM=   60 NAOKFM=F Big=F
 Integral buffers will be    131072 words long.
 Raffenetti 2 integral format.
 Two-electron integral symmetry is turned on.
 Nuclear repulsion after empirical dispersion term =       36.2412023946 Hartrees.
 One-electron integrals computed using PRISM.
 NBasis=    37 RedAO= T EigKep=  5.49D-02  NBF=    27    10
 NBsUse=    37 1.00D-06 EigRej= -1.00D+00 NBFU=    27    10
 Initial guess from the checkpoint file:  "/tmp/Gau-5448.chk"
 B after Tr=     0.000000    0.000000    0.000000
         Rot=    1.000000   -0.000000    0.000000    0.000737 Ang=   0.08 deg.
 Initial guess orbital symmetries:
       Occupied  (A') (A') (A') (A') (A') (A") (A') (A') (A') (A')
                 (A") (A') (A")
       Virtual   (A') (A') (A') (A') (A') (A") (A') (A') (A") (A')
                 (A") (A') (A') (A") (A') (A') (A") (A') (A') (A")
                 (A') (A') (A") (A')
 ExpMin= 1.22D-01 ExpMax= 1.04D+04 ExpMxC= 1.57D+03 IAcc=2 IRadAn=         4 AccDes= 0.00D+00
 Harris functional with IExCor=  402 and IRadAn=       4 diagonalized for initial guess.
 HarFok:  IExCor=  402 AccDes= 0.00D+00 IRadAn=         4 IDoV= 1 UseB2=F ITyADJ=14
 ICtDFT=  3500011 ScaDFX=  1.000000  1.000000  1.000000  1.000000
 FoFCou: FMM=F IPFlag=           0 FMFlag=      100000 FMFlg1=           0
         NFxFlg=           0 DoJE=T BraDBF=F KetDBF=T FulRan=T
         wScrn=  0.000000 ICntrl=       500 IOpCl=  0 I1Cent=   200000004 NGrid=           0
         NMat0=    1 NMatS0=      1 NMatT0=    0 NMatD0=    1 NMtDS0=    0 NMtDT0=    0
 Petite list used in FoFCou.
 Keep R1 ints in memory in symmetry-blocked form, NReq=7153137.
 Requested convergence on RMS density matrix=1.00D-08 within 128 cycles.
 Requested convergence on MAX density matrix=1.00D-06.
 Requested convergence on             energy=1.00D-06.
 No special actions if energy rises.
 Integral accuracy reduced to 1.0D-05 until final iterations.
 Initial convergence to 1.0D-05 achieved.  Increase integral accuracy.
 SCF Done:  E(RB3LYP) =  -535.674837233     A.U. after   15 cycles
            NFock= 15  Conv=0.33D-08     -V/T= 2.0032
 Calling FoFJK, ICntrl=      2127 FMM=F ISym2X=1 I1Cent= 0 IOpClX= 0 NMat=1 NMatS=1 NMatT=0.
 ***** Axes restored to original set *****
 -------------------------------------------------------------------
 Center     Atomic                   Forces (Hartrees/Bohr)
 Number     Number              X              Y              Z
 -------------------------------------------------------------------
      1        8           0.002598878    0.025226973   -0.057572499
      2       17          -0.002788542   -0.022699832    0.051853924
      3        1           0.000189664   -0.002527140    0.005718575
 -------------------------------------------------------------------
 Cartesian Forces:  Max     0.057572499 RMS     0.028301471

 GradGradGradGradGradGradGradGradGradGradGradGradGradGradGradGradGradGrad
 Berny optimization.
 FormGI is forming the generalized inverse of G from B-inverse, IUseBI=4.
 Internal  Forces:  Max     0.056625108 RMS     0.033355972
 Search for a saddle point.
 Step number   5 out of a maximum of  100
 All quantities printed in internal units (Hartrees-Bohrs-Radians)
 Swapping is turned off.
 Update second derivatives using D2CorX and points    3    4    5
 The second derivative matrix:
                          R1        R2        A1
           R1          -0.01207
           R2          -0.00280   0.48054
           A1           0.02571  -0.00087   0.10792
 ITU=  0  0  0  0
     Eigenvalues ---   -0.01736   0.11319   0.48055
 Eigenvectors required to have negative eigenvalues:
                          R1        A1        R2
   1                    0.97959  -0.20095   0.00515
 RFO step:  Lambda0=4.973473426D-02 Lambda=-1.92159231D-06.
 Linear search not attempted -- option 19 set.
 Maximum step size (   0.300) exceeded in Quadratic search.
    -- Step size scaled by   0.348
 Iteration  1 RMS(Cart)=  0.08252344 RMS(Int)=  0.05419790
 Iteration  2 RMS(Cart)=  0.04361095 RMS(Int)=  0.00004271
 Iteration  3 RMS(Cart)=  0.00006158 RMS(Int)=  0.00000000
 Iteration  4 RMS(Cart)=  0.00000000 RMS(Int)=  0.00000000
 ClnCor:  largest displacement from symmetrization is 2.52D-15 for atom     3.
 Variable       Old X    -DE/DX   Delta X   Delta X   Delta X     New X
                                 (Linear)    (Quad)   (Total)
    R1        4.79730  -0.05663   0.00000   0.29375   0.29375   5.09105
    R2        1.85648  -0.00116   0.00000   0.00092   0.00092   1.85740
    A1        1.34627   0.01141   0.00000  -0.06091  -0.06091   1.28536
         Item               Value     Threshold  Converged?
 Maximum Force            0.056625     0.000450     NO 
 RMS     Force            0.033356     0.000300     NO 
 Maximum Displacement     0.143160     0.001800     NO 
 RMS     Displacement     0.121363     0.001200     NO 
 Predicted change in Energy= 1.654829D-02
 GradGradGradGradGradGradGradGradGradGradGradGradGradGradGradGradGradGrad

                          Input orientation:                          
 ---------------------------------------------------------------------
 Center     Atomic      Atomic             Coordinates (Angstroms)
 Number     Number       Type             X           Y           Z
 ---------------------------------------------------------------------
      1          8           0       -0.409273   -5.168686   -3.458780
      2         17           0       -0.401859   -4.083293   -5.924519
      3          1           0        0.533708   -5.095928   -3.726305
 ---------------------------------------------------------------------
                    Distance matrix (angstroms):
                    1          2          3
     1  O    0.000000
     2  Cl   2.694068   0.000000
     3  H    0.982893   2.594776   0.000000
 Stoichiometry    ClHO
 Framework group  CS[SG(ClHO)]
 Deg. of freedom     3
 Full point group                 CS      NOp   2
 Largest Abelian subgroup         CS      NOp   2
 Largest concise Abelian subgroup C1      NOp   1
                         Standard orientation:                         
 ---------------------------------------------------------------------
 Center     Atomic      Atomic             Coordinates (Angstroms)
 Number     Number       Type             X           Y           Z
 ---------------------------------------------------------------------
      1          8           0        0.036274    1.772151   -0.000000
      2         17           0        0.036274   -0.921917    0.000000
      3          1           0       -0.906850    1.495391   -0.000000
 ---------------------------------------------------------------------
 Rotational constants (GHZ):         592.7215537           6.1538504           6.0906155
 Standard basis: SVP (5D, 7F)
 There are    29 symmetry adapted cartesian basis functions of A'  symmetry.
 There are    10 symmetry adapted cartesian basis functions of A"  symmetry.
 There are    27 symmetry adapted basis functions of A'  symmetry.
 There are    10 symmetry adapted basis functions of A"  symmetry.
    37 basis functions,    69 primitive gaussians,    39 cartesian basis functions
    13 alpha electrons       13 beta electrons
       nuclear repulsion energy        34.4876136911 Hartrees.
 NAtoms=    3 NActive=    3 NUniq=    3 SFac= 1.00D+00 NAtFMM=   60 NAOKFM=F Big=F
 Integral buffers will be    131072 words long.
 Raffenetti 2 integral format.
 Two-electron integral symmetry is turned on.
 Nuclear repulsion after empirical dispersion term =       34.4860400314 Hartrees.
 One-electron integrals computed using PRISM.
 NBasis=    37 RedAO= T EigKep=  5.52D-02  NBF=    27    10
 NBsUse=    37 1.00D-06 EigRej= -1.00D+00 NBFU=    27    10
 Initial guess from the checkpoint file:  "/tmp/Gau-5448.chk"
 B after Tr=     0.000000   -0.000000   -0.000000
         Rot=    1.000000   -0.000000    0.000000    0.000807 Ang=   0.09 deg.
 Initial guess orbital symmetries:
       Occupied  (A') (A') (A') (A') (A') (A") (A') (A') (A') (A')
                 (A") (A') (A")
       Virtual   (A') (A') (A') (A') (A') (A") (A') (A') (A") (A')
                 (A") (A') (A') (A") (A') (A') (A") (A') (A') (A")
                 (A') (A') (A") (A')
 ExpMin= 1.22D-01 ExpMax= 1.04D+04 ExpMxC= 1.57D+03 IAcc=2 IRadAn=         4 AccDes= 0.00D+00
 Harris functional with IExCor=  402 and IRadAn=       4 diagonalized for initial guess.
 HarFok:  IExCor=  402 AccDes= 0.00D+00 IRadAn=         4 IDoV= 1 UseB2=F ITyADJ=14
 ICtDFT=  3500011 ScaDFX=  1.000000  1.000000  1.000000  1.000000
 FoFCou: FMM=F IPFlag=           0 FMFlag=      100000 FMFlg1=           0
         NFxFlg=           0 DoJE=T BraDBF=F KetDBF=T FulRan=T
         wScrn=  0.000000 ICntrl=       500 IOpCl=  0 I1Cent=   200000004 NGrid=           0
         NMat0=    1 NMatS0=      1 NMatT0=    0 NMatD0=    1 NMtDS0=    0 NMtDT0=    0
 Petite list used in FoFCou.
 Keep R1 ints in memory in symmetry-blocked form, NReq=7153137.
 Requested convergence on RMS density matrix=1.00D-08 within 128 cycles.
 Requested convergence on MAX density matrix=1.00D-06.
 Requested convergence on             energy=1.00D-06.
 No special actions if energy rises.
 Integral accuracy reduced to 1.0D-05 until final iterations.
 Initial convergence to 1.0D-05 achieved.  Increase integral accuracy.
 SCF Done:  E(RB3LYP) =  -535.658484306     A.U. after   15 cycles
            NFock= 15  Conv=0.24D-08     -V/T= 2.0031
 Calling FoFJK, ICntrl=      2127 FMM=F ISym2X=1 I1Cent= 0 IOpClX= 0 NMat=1 NMatS=1 NMatT=0.
 ***** Axes restored to original set *****
 -------------------------------------------------------------------
 Center     Atomic                   Forces (Hartrees/Bohr)
 Number     Number              X              Y              Z
 -------------------------------------------------------------------
      1        8           0.001605979    0.022409247   -0.051065724
      2       17          -0.002214531   -0.020060712    0.045798202
      3        1           0.000608552   -0.002348534    0.005267522
 -------------------------------------------------------------------
 Cartesian Forces:  Max     0.051065724 RMS     0.025057503

 GradGradGradGradGradGradGradGradGradGradGradGradGradGradGradGradGradGrad
 Berny optimization.
 FormGI is forming the generalized inverse of G from B-inverse, IUseBI=4.
 Internal  Forces:  Max     0.050005526 RMS     0.029518245
 Search for a saddle point.
 Step number   6 out of a maximum of  100
 All quantities printed in internal units (Hartrees-Bohrs-Radians)
 Swapping is turned off.
 Second derivative matrix not updated -- analytic derivatives used.
 The second derivative matrix:
                          R1        R2        A1
           R1          -0.01207
           R2          -0.00280   0.48054
           A1           0.02571  -0.00087   0.10792
 ITU=  0  0  0  0
     Eigenvalues ---   -0.01736   0.11319   0.48055
 Eigenvectors required to have negative eigenvalues:
                          R1        A1        R2
   1                    0.97959  -0.20095   0.00515
 RFO step:  Lambda0=4.317086173D-02 Lambda=-2.18106439D-06.
 Linear search not attempted -- option 19 set.
 Maximum step size (   0.300) exceeded in Quadratic search.
    -- Step size scaled by   0.355
 Iteration  1 RMS(Cart)=  0.08276027 RMS(Int)=  0.05439268
 Iteration  2 RMS(Cart)=  0.04391153 RMS(Int)=  0.00003673
 Iteration  3 RMS(Cart)=  0.00005371 RMS(Int)=  0.00000000
 Iteration  4 RMS(Cart)=  0.00000000 RMS(Int)=  0.00000000
 ClnCor:  largest displacement from symmetrization is 1.78D-15 for atom     1.
 Variable       Old X    -DE/DX   Delta X   Delta X   Delta X     New X
                                 (Linear)    (Quad)   (Total)
    R1        5.09105  -0.05001   0.00000   0.29409   0.29409   5.38514
    R2        1.85740  -0.00102   0.00000   0.00099   0.00099   1.85839
    A1        1.28536   0.01060   0.00000  -0.05926  -0.05926   1.22610
         Item               Value     Threshold  Converged?
 Maximum Force            0.050006     0.000450     NO 
 RMS     Force            0.029518     0.000300     NO 
 Maximum Displacement     0.144626     0.001800     NO 
 RMS     Displacement     0.122031     0.001200     NO 
 Predicted change in Energy= 1.455404D-02
 GradGradGradGradGradGradGradGradGradGradGradGradGradGradGradGradGradGrad

                          Input orientation:                          
 ---------------------------------------------------------------------
 Center     Atomic      Atomic             Coordinates (Angstroms)
 Number     Number       Type             X           Y           Z
 ---------------------------------------------------------------------
      1          8           0       -0.398331   -5.198119   -3.393125
      2         17           0       -0.404702   -4.049457   -6.001052
      3          1           0        0.525609   -5.100331   -3.715426
 ---------------------------------------------------------------------
                    Distance matrix (angstroms):
                    1          2          3
     1  O    0.000000
     2  Cl   2.849692   0.000000
     3  H    0.983415   2.682145   0.000000
 Stoichiometry    ClHO
 Framework group  CS[SG(ClHO)]
 Deg. of freedom     3
 Full point group                 CS      NOp   2
 Largest Abelian subgroup         CS      NOp   2
 Largest concise Abelian subgroup C1      NOp   1
                         Standard orientation:                         
 ---------------------------------------------------------------------
 Center     Atomic      Atomic             Coordinates (Angstroms)
 Number     Number       Type             X           Y           Z
 ---------------------------------------------------------------------
      1          8           0        0.035599    1.876041    0.000000
      2         17           0        0.035599   -0.973651    0.000000
      3          1           0       -0.889970    1.543733   -0.000000
 ---------------------------------------------------------------------
 Rotational constants (GHZ):         614.5227136           5.5080880           5.4591565
 Standard basis: SVP (5D, 7F)
 There are    29 symmetry adapted cartesian basis functions of A'  symmetry.
 There are    10 symmetry adapted cartesian basis functions of A"  symmetry.
 There are    27 symmetry adapted basis functions of A'  symmetry.
 There are    10 symmetry adapted basis functions of A"  symmetry.
    37 basis functions,    69 primitive gaussians,    39 cartesian basis functions
    13 alpha electrons       13 beta electrons
       nuclear repulsion energy        32.9135403891 Hartrees.
 NAtoms=    3 NActive=    3 NUniq=    3 SFac= 1.00D+00 NAtFMM=   60 NAOKFM=F Big=F
 Integral buffers will be    131072 words long.
 Raffenetti 2 integral format.
 Two-electron integral symmetry is turned on.
 Nuclear repulsion after empirical dispersion term =       32.9120371384 Hartrees.
 One-electron integrals computed using PRISM.
 NBasis=    37 RedAO= T EigKep=  5.51D-02  NBF=    27    10
 NBsUse=    37 1.00D-06 EigRej= -1.00D+00 NBFU=    27    10
 Initial guess from the checkpoint file:  "/tmp/Gau-5448.chk"
 B after Tr=    -0.000000    0.000000   -0.000000
         Rot=    1.000000   -0.000000    0.000000    0.000798 Ang=   0.09 deg.
 Initial guess orbital symmetries:
       Occupied  (A') (A') (A') (A') (A') (A") (A') (A') (A') (A')
                 (A") (A') (A")
       Virtual   (A') (A') (A') (A') (A') (A") (A') (A") (A') (A')
                 (A") (A') (A') (A") (A') (A') (A") (A') (A') (A")
                 (A') (A') (A") (A')
 ExpMin= 1.22D-01 ExpMax= 1.04D+04 ExpMxC= 1.57D+03 IAcc=2 IRadAn=         4 AccDes= 0.00D+00
 Harris functional with IExCor=  402 and IRadAn=       4 diagonalized for initial guess.
 HarFok:  IExCor=  402 AccDes= 0.00D+00 IRadAn=         4 IDoV= 1 UseB2=F ITyADJ=14
 ICtDFT=  3500011 ScaDFX=  1.000000  1.000000  1.000000  1.000000
 FoFCou: FMM=F IPFlag=           0 FMFlag=      100000 FMFlg1=           0
         NFxFlg=           0 DoJE=T BraDBF=F KetDBF=T FulRan=T
         wScrn=  0.000000 ICntrl=       500 IOpCl=  0 I1Cent=   200000004 NGrid=           0
         NMat0=    1 NMatS0=      1 NMatT0=    0 NMatD0=    1 NMtDS0=    0 NMtDT0=    0
 Petite list used in FoFCou.
 Keep R1 ints in memory in symmetry-blocked form, NReq=7153137.
 Requested convergence on RMS density matrix=1.00D-08 within 128 cycles.
 Requested convergence on MAX density matrix=1.00D-06.
 Requested convergence on             energy=1.00D-06.
 No special actions if energy rises.
 Integral accuracy reduced to 1.0D-05 until final iterations.
 Initial convergence to 1.0D-05 achieved.  Increase integral accuracy.
 SCF Done:  E(RB3LYP) =  -535.644202355     A.U. after   16 cycles
            NFock= 16  Conv=0.18D-08     -V/T= 2.0030
 Calling FoFJK, ICntrl=      2127 FMM=F ISym2X=1 I1Cent= 0 IOpClX= 0 NMat=1 NMatS=1 NMatT=0.
 ***** Axes restored to original set *****
 -------------------------------------------------------------------
 Center     Atomic                   Forces (Hartrees/Bohr)
 Number     Number              X              Y              Z
 -------------------------------------------------------------------
      1        8           0.000907576    0.019427520   -0.044218447
      2       17          -0.001708906   -0.017273089    0.039412648
      3        1           0.000801330   -0.002154431    0.004805799
 -------------------------------------------------------------------
 Cartesian Forces:  Max     0.044218447 RMS     0.021644962

 GradGradGradGradGradGradGradGradGradGradGradGradGradGradGradGradGradGrad
 Berny optimization.
 FormGI is forming the generalized inverse of G from B-inverse, IUseBI=4.
 Internal  Forces:  Max     0.043026999 RMS     0.025473674
 Search for a saddle point.
 Step number   7 out of a maximum of  100
 All quantities printed in internal units (Hartrees-Bohrs-Radians)
 Swapping is turned off.
 Update second derivatives using D2CorX and points    5    6    7
 The second derivative matrix:
                          R1        R2        A1
           R1          -0.01873
           R2          -0.00171   0.48037
           A1           0.02477  -0.00076   0.10788
 ITU=  0  0  0  0
     Eigenvalues ---   -0.02341   0.11255   0.48038
 Eigenvectors required to have negative eigenvalues:
                          R1        A1        R2
   1                   -0.98267   0.18534  -0.00306
 RFO step:  Lambda0=3.390716100D-02 Lambda=-2.35214395D-05.
 Linear search not attempted -- option 19 set.
 Maximum step size (   0.300) exceeded in Quadratic search.
    -- Step size scaled by   0.390
 Iteration  1 RMS(Cart)=  0.08280470 RMS(Int)=  0.05533426
 Iteration  2 RMS(Cart)=  0.04478230 RMS(Int)=  0.00003101
 Iteration  3 RMS(Cart)=  0.00004589 RMS(Int)=  0.00000000
 Iteration  4 RMS(Cart)=  0.00000000 RMS(Int)=  0.00000000
 ClnCor:  largest displacement from symmetrization is 2.66D-15 for atom     1.
 Variable       Old X    -DE/DX   Delta X   Delta X   Delta X     New X
                                 (Linear)    (Quad)   (Total)
    R1        5.38514  -0.04303   0.00000   0.29576   0.29576   5.68090
    R2        1.85839  -0.00104   0.00000   0.00020   0.00020   1.85858
    A1        1.22610   0.00971   0.00000  -0.05026  -0.05026   1.17584
         Item               Value     Threshold  Converged?
 Maximum Force            0.043027     0.000450     NO 
 RMS     Force            0.025474     0.000300     NO 
 Maximum Displacement     0.150644     0.001800     NO 
 RMS     Displacement     0.124191     0.001200     NO 
 Predicted change in Energy= 1.216269D-02
 GradGradGradGradGradGradGradGradGradGradGradGradGradGradGradGradGradGrad

                          Input orientation:                          
 ---------------------------------------------------------------------
 Center     Atomic      Atomic             Coordinates (Angstroms)
 Number     Number       Type             X           Y           Z
 ---------------------------------------------------------------------
      1          8           0       -0.385824   -5.226515   -3.329993
      2         17           0       -0.409680   -4.014117   -6.080769
      3          1           0        0.518080   -5.107274   -3.698841
 ---------------------------------------------------------------------
                    Distance matrix (angstroms):
                    1          2          3
     1  O    0.000000
     2  Cl   3.006202   0.000000
     3  H    0.983520   2.780164   0.000000
 Stoichiometry    ClHO
 Framework group  CS[SG(ClHO)]
 Deg. of freedom     3
 Full point group                 CS      NOp   2
 Largest Abelian subgroup         CS      NOp   2
 Largest concise Abelian subgroup C1      NOp   1
                         Standard orientation:                         
 ---------------------------------------------------------------------
 Center     Atomic      Atomic             Coordinates (Angstroms)
 Number     Number       Type             X           Y           Z
 ---------------------------------------------------------------------
      1          8           0        0.034915    1.980148    0.000000
      2         17           0        0.034915   -1.026054   -0.000000
      3          1           0       -0.872887    1.601723    0.000000
 ---------------------------------------------------------------------
 Rotational constants (GHZ):         638.1985422           4.9542434           4.9160806
 Standard basis: SVP (5D, 7F)
 There are    29 symmetry adapted cartesian basis functions of A'  symmetry.
 There are    10 symmetry adapted cartesian basis functions of A"  symmetry.
 There are    27 symmetry adapted basis functions of A'  symmetry.
 There are    10 symmetry adapted basis functions of A"  symmetry.
    37 basis functions,    69 primitive gaussians,    39 cartesian basis functions
    13 alpha electrons       13 beta electrons
       nuclear repulsion energy        31.4800158387 Hartrees.
 NAtoms=    3 NActive=    3 NUniq=    3 SFac= 1.00D+00 NAtFMM=   60 NAOKFM=F Big=F
 Integral buffers will be    131072 words long.
 Raffenetti 2 integral format.
 Two-electron integral symmetry is turned on.
 Nuclear repulsion after empirical dispersion term =       31.4785995486 Hartrees.
 One-electron integrals computed using PRISM.
 NBasis=    37 RedAO= T EigKep=  5.49D-02  NBF=    27    10
 NBsUse=    37 1.00D-06 EigRej= -1.00D+00 NBFU=    27    10
 Initial guess from the checkpoint file:  "/tmp/Gau-5448.chk"
 B after Tr=    -0.000000   -0.000000    0.000000
         Rot=    1.000000   -0.000000    0.000000    0.000811 Ang=   0.09 deg.
 Initial guess orbital symmetries:
       Occupied  (A') (A') (A') (A') (A') (A") (A') (A') (A') (A')
                 (A") (A') (A")
       Virtual   (A') (A') (A') (A') (A') (A") (A') (A") (A') (A')
                 (A") (A') (A') (A") (A') (A') (A') (A") (A') (A")
                 (A') (A') (A") (A')
 ExpMin= 1.22D-01 ExpMax= 1.04D+04 ExpMxC= 1.57D+03 IAcc=2 IRadAn=         4 AccDes= 0.00D+00
 Harris functional with IExCor=  402 and IRadAn=       4 diagonalized for initial guess.
 HarFok:  IExCor=  402 AccDes= 0.00D+00 IRadAn=         4 IDoV= 1 UseB2=F ITyADJ=14
 ICtDFT=  3500011 ScaDFX=  1.000000  1.000000  1.000000  1.000000
 FoFCou: FMM=F IPFlag=           0 FMFlag=      100000 FMFlg1=           0
         NFxFlg=           0 DoJE=T BraDBF=F KetDBF=T FulRan=T
         wScrn=  0.000000 ICntrl=       500 IOpCl=  0 I1Cent=   200000004 NGrid=           0
         NMat0=    1 NMatS0=      1 NMatT0=    0 NMatD0=    1 NMtDS0=    0 NMtDT0=    0
 Petite list used in FoFCou.
 Keep R1 ints in memory in symmetry-blocked form, NReq=7153137.
 Requested convergence on RMS density matrix=1.00D-08 within 128 cycles.
 Requested convergence on MAX density matrix=1.00D-06.
 Requested convergence on             energy=1.00D-06.
 No special actions if energy rises.
 Integral accuracy reduced to 1.0D-05 until final iterations.
 Initial convergence to 1.0D-05 achieved.  Increase integral accuracy.
 SCF Done:  E(RB3LYP) =  -535.632009690     A.U. after   17 cycles
            NFock= 17  Conv=0.40D-08     -V/T= 2.0030
 Calling FoFJK, ICntrl=      2127 FMM=F ISym2X=1 I1Cent= 0 IOpClX= 0 NMat=1 NMatS=1 NMatT=0.
 ***** Axes restored to original set *****
 -------------------------------------------------------------------
 Center     Atomic                   Forces (Hartrees/Bohr)
 Number     Number              X              Y              Z
 -------------------------------------------------------------------
      1        8           0.000172773    0.016494134   -0.037477006
      2       17          -0.001209093   -0.014633338    0.033363542
      3        1           0.001036320   -0.001860796    0.004113464
 -------------------------------------------------------------------
 Cartesian Forces:  Max     0.037477006 RMS     0.018338762

 GradGradGradGradGradGradGradGradGradGradGradGradGradGradGradGradGradGrad
 Berny optimization.
 FormGI is forming the generalized inverse of G from B-inverse, IUseBI=4.
 Internal  Forces:  Max     0.036419587 RMS     0.021594076
 Search for a saddle point.
 Step number   8 out of a maximum of  100
 All quantities printed in internal units (Hartrees-Bohrs-Radians)
 Swapping is turned off.
 Update second derivatives using D2CorX and points    6    7    8
 The second derivative matrix:
                          R1        R2        A1
           R1          -0.01847
           R2          -0.00124   0.48042
           A1           0.02276  -0.00104   0.10938
 ITU=  0  0  0  0
     Eigenvalues ---   -0.02241   0.11331   0.48043
 Eigenvectors required to have negative eigenvalues:
                          R1        A1        R2
   1                   -0.98541   0.17020  -0.00207
 RFO step:  Lambda0=2.777433887D-02 Lambda=-4.20239890D-05.
 Linear search not attempted -- option 19 set.
 Maximum step size (   0.300) exceeded in Quadratic search.
    -- Step size scaled by   0.403
 Iteration  1 RMS(Cart)=  0.08327926 RMS(Int)=  0.05593783
 Iteration  2 RMS(Cart)=  0.04534175 RMS(Int)=  0.00002628
 Iteration  3 RMS(Cart)=  0.00003920 RMS(Int)=  0.00000000
 Iteration  4 RMS(Cart)=  0.00000000 RMS(Int)=  0.00000000
 ClnCor:  largest displacement from symmetrization is 4.79D-15 for atom     1.
 Variable       Old X    -DE/DX   Delta X   Delta X   Delta X     New X
                                 (Linear)    (Quad)   (Total)
    R1        5.68090  -0.03642   0.00000   0.29683   0.29683   5.97773
    R2        1.85858  -0.00082   0.00000   0.00002   0.00002   1.85860
    A1        1.17584   0.00848   0.00000  -0.04350  -0.04350   1.13234
         Item               Value     Threshold  Converged?
 Maximum Force            0.036420     0.000450     NO 
 RMS     Force            0.021594     0.000300     NO 
 Maximum Displacement     0.155155     0.001800     NO 
 RMS     Displacement     0.126069     0.001200     NO 
 Predicted change in Energy= 1.017497D-02
 GradGradGradGradGradGradGradGradGradGradGradGradGradGradGradGradGradGrad

                          Input orientation:                          
 ---------------------------------------------------------------------
 Center     Atomic      Atomic             Coordinates (Angstroms)
 Number     Number       Type             X           Y           Z
 ---------------------------------------------------------------------
      1          8           0       -0.372476   -5.254062   -3.268883
      2         17           0       -0.416254   -3.977649   -6.162873
      3          1           0        0.511306   -5.116195   -3.677846
 ---------------------------------------------------------------------
                    Distance matrix (angstroms):
                    1          2          3
     1  O    0.000000
     2  Cl   3.163277   0.000000
     3  H    0.983529   2.886523   0.000000
 Stoichiometry    ClHO
 Framework group  CS[SG(ClHO)]
 Deg. of freedom     3
 Full point group                 CS      NOp   2
 Largest Abelian subgroup         CS      NOp   2
 Largest concise Abelian subgroup C1      NOp   1
                         Standard orientation:                         
 ---------------------------------------------------------------------
 Center     Atomic      Atomic             Coordinates (Angstroms)
 Number     Number       Type             X           Y           Z
 ---------------------------------------------------------------------
      1          8           0        0.034250    2.084356   -0.000000
      2         17           0        0.034250   -1.078921    0.000000
      3          1           0       -0.856246    1.666809   -0.000000
 ---------------------------------------------------------------------
 Rotational constants (GHZ):         662.8280522           4.4772650           4.4472250
 Standard basis: SVP (5D, 7F)
 There are    29 symmetry adapted cartesian basis functions of A'  symmetry.
 There are    10 symmetry adapted cartesian basis functions of A"  symmetry.
 There are    27 symmetry adapted basis functions of A'  symmetry.
 There are    10 symmetry adapted basis functions of A"  symmetry.
    37 basis functions,    69 primitive gaussians,    39 cartesian basis functions
    13 alpha electrons       13 beta electrons
       nuclear repulsion energy        30.1719914819 Hartrees.
 NAtoms=    3 NActive=    3 NUniq=    3 SFac= 1.00D+00 NAtFMM=   60 NAOKFM=F Big=F
 Integral buffers will be    131072 words long.
 Raffenetti 2 integral format.
 Two-electron integral symmetry is turned on.
 Nuclear repulsion after empirical dispersion term =       30.1706764181 Hartrees.
 One-electron integrals computed using PRISM.
 NBasis=    37 RedAO= T EigKep=  5.47D-02  NBF=    27    10
 NBsUse=    37 1.00D-06 EigRej= -1.00D+00 NBFU=    27    10
 Initial guess from the checkpoint file:  "/tmp/Gau-5448.chk"
 B after Tr=     0.000000   -0.000000   -0.000000
         Rot=    1.000000   -0.000000    0.000000    0.000785 Ang=   0.09 deg.
 Initial guess orbital symmetries:
       Occupied  (A') (A') (A') (A') (A') (A") (A') (A') (A') (A')
                 (A") (A') (A")
       Virtual   (A') (A') (A') (A') (A') (A") (A') (A") (A') (A')
                 (A") (A') (A') (A") (A') (A') (A') (A") (A') (A")
                 (A') (A') (A") (A')
 ExpMin= 1.22D-01 ExpMax= 1.04D+04 ExpMxC= 1.57D+03 IAcc=2 IRadAn=         4 AccDes= 0.00D+00
 Harris functional with IExCor=  402 and IRadAn=       4 diagonalized for initial guess.
 HarFok:  IExCor=  402 AccDes= 0.00D+00 IRadAn=         4 IDoV= 1 UseB2=F ITyADJ=14
 ICtDFT=  3500011 ScaDFX=  1.000000  1.000000  1.000000  1.000000
 FoFCou: FMM=F IPFlag=           0 FMFlag=      100000 FMFlg1=           0
         NFxFlg=           0 DoJE=T BraDBF=F KetDBF=T FulRan=T
         wScrn=  0.000000 ICntrl=       500 IOpCl=  0 I1Cent=   200000004 NGrid=           0
         NMat0=    1 NMatS0=      1 NMatT0=    0 NMatD0=    1 NMtDS0=    0 NMtDT0=    0
 Petite list used in FoFCou.
 Keep R1 ints in memory in symmetry-blocked form, NReq=7153137.
 Requested convergence on RMS density matrix=1.00D-08 within 128 cycles.
 Requested convergence on MAX density matrix=1.00D-06.
 Requested convergence on             energy=1.00D-06.
 No special actions if energy rises.
 Integral accuracy reduced to 1.0D-05 until final iterations.
 Initial convergence to 1.0D-05 achieved.  Increase integral accuracy.
 SCF Done:  E(RB3LYP) =  -535.621758739     A.U. after   19 cycles
            NFock= 19  Conv=0.10D-08     -V/T= 2.0029
 Calling FoFJK, ICntrl=      2127 FMM=F ISym2X=1 I1Cent= 0 IOpClX= 0 NMat=1 NMatS=1 NMatT=0.
 ***** Axes restored to original set *****
 -------------------------------------------------------------------
 Center     Atomic                   Forces (Hartrees/Bohr)
 Number     Number              X              Y              Z
 -------------------------------------------------------------------
      1        8          -0.000320714    0.013806041   -0.031318802
      2       17          -0.000776074   -0.012257746    0.027921589
      3        1           0.001096788   -0.001548295    0.003397212
 -------------------------------------------------------------------
 Cartesian Forces:  Max     0.031318802 RMS     0.015337637

 GradGradGradGradGradGradGradGradGradGradGradGradGradGradGradGradGradGrad
 Berny optimization.
 FormGI is forming the generalized inverse of G from B-inverse, IUseBI=4.
 Internal  Forces:  Max     0.030479148 RMS     0.018076540
 Search for a saddle point.
 Step number   9 out of a maximum of  100
 All quantities printed in internal units (Hartrees-Bohrs-Radians)
 Swapping is turned off.
 Update second derivatives using D2CorX and points    7    8    9
 The second derivative matrix:
                          R1        R2        A1
           R1          -0.01697
           R2          -0.00081   0.48048
           A1           0.02078  -0.00134   0.11089
 ITU=  0  0  0  0
     Eigenvalues ---   -0.02026   0.11418   0.48048
 Eigenvectors required to have negative eigenvalues:
                          R1        A1        R2
   1                   -0.98769   0.15645  -0.00117
 RFO step:  Lambda0=2.269285099D-02 Lambda=-4.61007995D-05.
 Linear search not attempted -- option 19 set.
 Maximum step size (   0.300) exceeded in Quadratic search.
    -- Step size scaled by   0.413
 Iteration  1 RMS(Cart)=  0.08389329 RMS(Int)=  0.05630534
 Iteration  2 RMS(Cart)=  0.04569533 RMS(Int)=  0.00002240
 Iteration  3 RMS(Cart)=  0.00003360 RMS(Int)=  0.00000000
 Iteration  4 RMS(Cart)=  0.00000000 RMS(Int)=  0.00000000
 ClnCor:  largest displacement from symmetrization is 1.99D-15 for atom     1.
 Variable       Old X    -DE/DX   Delta X   Delta X   Delta X     New X
                                 (Linear)    (Quad)   (Total)
    R1        5.97773  -0.03048   0.00000   0.29748   0.29748   6.27521
    R2        1.85860  -0.00065   0.00000  -0.00015  -0.00015   1.85845
    A1        1.13234   0.00713   0.00000  -0.03880  -0.03880   1.09354
         Item               Value     Threshold  Converged?
 Maximum Force            0.030479     0.000450     NO 
 RMS     Force            0.018077     0.000300     NO 
 Maximum Displacement     0.158360     0.001800     NO 
 RMS     Displacement     0.127560     0.001200     NO 
 Predicted change in Energy= 8.436533D-03
 GradGradGradGradGradGradGradGradGradGradGradGradGradGradGradGradGradGrad

                          Input orientation:                          
 ---------------------------------------------------------------------
 Center     Atomic      Atomic             Coordinates (Angstroms)
 Number     Number       Type             X           Y           Z
 ---------------------------------------------------------------------
      1          8           0       -0.358577   -5.280960   -3.209305
      2         17           0       -0.423935   -3.940382   -6.246674
      3          1           0        0.505088   -5.126564   -3.653624
 ---------------------------------------------------------------------
                    Distance matrix (angstroms):
                    1          2          3
     1  O    0.000000
     2  Cl   3.320697   0.000000
     3  H    0.983450   2.999003   0.000000
 Stoichiometry    ClHO
 Framework group  CS[SG(ClHO)]
 Deg. of freedom     3
 Full point group                 CS      NOp   2
 Largest Abelian subgroup         CS      NOp   2
 Largest concise Abelian subgroup C1      NOp   1
                         Standard orientation:                         
 ---------------------------------------------------------------------
 Center     Atomic      Atomic             Coordinates (Angstroms)
 Number     Number       Type             X           Y           Z
 ---------------------------------------------------------------------
      1          8           0        0.033598    2.188600   -0.000000
      2         17           0        0.033598   -1.132097    0.000000
      3          1           0       -0.839961    1.736860   -0.000000
 ---------------------------------------------------------------------
 Rotational constants (GHZ):         688.4915689           4.0645266           4.0406724
 Standard basis: SVP (5D, 7F)
 There are    29 symmetry adapted cartesian basis functions of A'  symmetry.
 There are    10 symmetry adapted cartesian basis functions of A"  symmetry.
 There are    27 symmetry adapted basis functions of A'  symmetry.
 There are    10 symmetry adapted basis functions of A"  symmetry.
    37 basis functions,    69 primitive gaussians,    39 cartesian basis functions
    13 alpha electrons       13 beta electrons
       nuclear repulsion energy        28.9769128641 Hartrees.
 NAtoms=    3 NActive=    3 NUniq=    3 SFac= 1.00D+00 NAtFMM=   60 NAOKFM=F Big=F
 Integral buffers will be    131072 words long.
 Raffenetti 2 integral format.
 Two-electron integral symmetry is turned on.
 Nuclear repulsion after empirical dispersion term =       28.9757089887 Hartrees.
 One-electron integrals computed using PRISM.
 NBasis=    37 RedAO= T EigKep=  5.46D-02  NBF=    27    10
 NBsUse=    37 1.00D-06 EigRej= -1.00D+00 NBFU=    27    10
 Initial guess from the checkpoint file:  "/tmp/Gau-5448.chk"
 B after Tr=     0.000000    0.000000    0.000000
         Rot=    1.000000   -0.000000    0.000000    0.000744 Ang=   0.09 deg.
 Initial guess orbital symmetries:
       Occupied  (A') (A') (A') (A') (A') (A") (A') (A') (A') (A")
                 (A') (A') (A")
       Virtual   (A') (A') (A') (A') (A') (A") (A') (A') (A") (A')
                 (A') (A") (A') (A") (A') (A') (A') (A") (A') (A")
                 (A') (A') (A") (A')
 ExpMin= 1.22D-01 ExpMax= 1.04D+04 ExpMxC= 1.57D+03 IAcc=2 IRadAn=         4 AccDes= 0.00D+00
 Harris functional with IExCor=  402 and IRadAn=       4 diagonalized for initial guess.
 HarFok:  IExCor=  402 AccDes= 0.00D+00 IRadAn=         4 IDoV= 1 UseB2=F ITyADJ=14
[...]
 Iteration  2 RMS(Cart)=  0.04409459 RMS(Int)=  0.00000046
 Iteration  3 RMS(Cart)=  0.00000065 RMS(Int)=  0.00000000
 ClnCor:  largest displacement from symmetrization is 3.66D-15 for atom     1.
 Variable       Old X    -DE/DX   Delta X   Delta X   Delta X     New X
                                 (Linear)    (Quad)   (Total)
    R1       11.26746  -0.00100   0.00000   0.29027   0.29027  11.55773
    R2        1.85543   0.00001   0.00000  -0.00014  -0.00014   1.85528
    A1        0.08518  -0.00005   0.00000  -0.07578  -0.07578   0.00939
         Item               Value     Threshold  Converged?
 Maximum Force            0.001005     0.000450     NO 
 RMS     Force            0.000581     0.000300     NO 
 Maximum Displacement     0.175034     0.001800     NO 
 RMS     Displacement     0.148630     0.001200     NO 
 Predicted change in Energy= 2.749601D-04
 GradGradGradGradGradGradGradGradGradGradGradGradGradGradGradGradGradGrad

                          Input orientation:                          
 ---------------------------------------------------------------------
 Center     Atomic      Atomic             Coordinates (Angstroms)
 Number     Number       Type             X           Y           Z
 ---------------------------------------------------------------------
      1          8           0        0.172330   -5.740689   -2.222848
      2         17           0       -0.520093   -3.264114   -7.772052
      3          1           0        0.070339   -5.343104   -3.114703
 ---------------------------------------------------------------------
                    Distance matrix (angstroms):
                    1          2          3
     1  O    0.000000
     2  Cl   6.116088   0.000000
     3  H    0.981774   5.134365   0.000000
 Stoichiometry    ClHO
 Framework group  CS[SG(ClHO)]
 Deg. of freedom     3
 Full point group                 CS      NOp   2
 Largest Abelian subgroup         CS      NOp   2
 Largest concise Abelian subgroup C1      NOp   1
                         Standard orientation:                         
 ---------------------------------------------------------------------
 Center     Atomic      Atomic             Coordinates (Angstroms)
 Number     Number       Type             X           Y           Z
 ---------------------------------------------------------------------
      1          8           0        0.000355    4.036739    0.000000
      2         17           0        0.000355   -2.079348   -0.000000
      3          1           0       -0.008867    3.055008    0.000000
 ---------------------------------------------------------------------
 Rotational constants (GHZ):     6162995.5203528           1.2011440           1.2011437
 Standard basis: SVP (5D, 7F)
 There are    29 symmetry adapted cartesian basis functions of A'  symmetry.
 There are    10 symmetry adapted cartesian basis functions of A"  symmetry.
 There are    27 symmetry adapted basis functions of A'  symmetry.
 There are    10 symmetry adapted basis functions of A"  symmetry.
    37 basis functions,    69 primitive gaussians,    39 cartesian basis functions
    13 alpha electrons       13 beta electrons
       nuclear repulsion energy        17.8311412976 Hartrees.
 NAtoms=    3 NActive=    3 NUniq=    3 SFac= 1.00D+00 NAtFMM=   60 NAOKFM=F Big=F
 Integral buffers will be    131072 words long.
 Raffenetti 2 integral format.
 Two-electron integral symmetry is turned on.
 Nuclear repulsion after empirical dispersion term =       17.8308476248 Hartrees.
 One-electron integrals computed using PRISM.
 NBasis=    37 RedAO= T EigKep=  5.60D-02  NBF=    27    10
 NBsUse=    37 1.00D-06 EigRej= -1.00D+00 NBFU=    27    10
 Initial guess from the checkpoint file:  "/tmp/Gau-5448.chk"
 B after Tr=    -0.000000   -0.000000    0.000000
         Rot=    1.000000   -0.000000   -0.000000    0.000548 Ang=   0.06 deg.
 Initial guess orbital symmetries:
       Occupied  (A') (A') (A') (A') (A') (A") (A') (A') (A') (A")
                 (A') (A") (A')
       Virtual   (A') (A') (A') (A') (A') (A') (A") (A') (A") (A')
                 (A') (A") (A') (A') (A") (A') (A') (A") (A') (A")
                 (A') (A') (A") (A')
 ExpMin= 1.22D-01 ExpMax= 1.04D+04 ExpMxC= 1.57D+03 IAcc=2 IRadAn=         4 AccDes= 0.00D+00
 Harris functional with IExCor=  402 and IRadAn=       4 diagonalized for initial guess.
 HarFok:  IExCor=  402 AccDes= 0.00D+00 IRadAn=         4 IDoV= 1 UseB2=F ITyADJ=14
 ICtDFT=  3500011 ScaDFX=  1.000000  1.000000  1.000000  1.000000
 FoFCou: FMM=F IPFlag=           0 FMFlag=      100000 FMFlg1=           0
         NFxFlg=           0 DoJE=T BraDBF=F KetDBF=T FulRan=T
         wScrn=  0.000000 ICntrl=       500 IOpCl=  0 I1Cent=   200000004 NGrid=           0
         NMat0=    1 NMatS0=      1 NMatT0=    0 NMatD0=    1 NMtDS0=    0 NMtDT0=    0
 Petite list used in FoFCou.
 Keep R1 ints in memory in symmetry-blocked form, NReq=7153137.
 Requested convergence on RMS density matrix=1.00D-08 within 128 cycles.
 Requested convergence on MAX density matrix=1.00D-06.
 Requested convergence on             energy=1.00D-06.
 No special actions if energy rises.
 Integral accuracy reduced to 1.0D-05 until final iterations.
 Initial convergence to 1.0D-05 achieved.  Increase integral accuracy.
 SCF Done:  E(RB3LYP) =  -535.579303909     A.U. after   30 cycles
            NFock= 30  Conv=0.74D-08     -V/T= 2.0025
 Calling FoFJK, ICntrl=      2127 FMM=F ISym2X=1 I1Cent= 0 IOpClX= 0 NMat=1 NMatS=1 NMatT=0.
 ***** Axes restored to original set *****
 -------------------------------------------------------------------
 Center     Atomic                   Forces (Hartrees/Bohr)
 Number     Number              X              Y              Z
 -------------------------------------------------------------------
      1        8          -0.000100139    0.000364723   -0.000817426
      2       17           0.000104918   -0.000373283    0.000836348
      3        1          -0.000004779    0.000008560   -0.000018922
 -------------------------------------------------------------------
 Cartesian Forces:  Max     0.000836348 RMS     0.000429666

 GradGradGradGradGradGradGradGradGradGradGradGradGradGradGradGradGradGrad
 Berny optimization.
 FormGI is forming the generalized inverse of G from B-inverse, IUseBI=4.
 Internal  Forces:  Max     0.000921860 RMS     0.000532383
 Search for a saddle point.
 Step number  28 out of a maximum of  100
 All quantities printed in internal units (Hartrees-Bohrs-Radians)
 Swapping is turned off.
 Update second derivatives using D2CorX and points   26   27   28
 The second derivative matrix:
                          R1        R2        A1
           R1           0.00737
           R2          -0.00025   0.48057
           A1           0.02932  -0.00177   0.11293
 ITU=  0  0  0  0
     Eigenvalues ---   -0.00023   0.12052   0.48058
 Eigenvectors required to have negative eigenvalues:
                          R1        A1        R2
   1                    0.96803  -0.25085  -0.00042
 RFO step:  Lambda0=7.845033714D-04 Lambda=-4.61984448D-07.
 Linear search not attempted -- option 19 set.
 Maximum step size (   0.300) exceeded in Quadratic search.
    -- Step size scaled by   0.341
 Iteration  1 RMS(Cart)=  0.09264403 RMS(Int)=  0.10008040
 Iteration  2 RMS(Cart)=  0.09939209 RMS(Int)=  0.06924818
 New curvilinear step failed, DQL= 2.14D-02 SP=-6.07D-01.
 ITry= 1 IFail=1 DXMaxC= 1.63D-01 DCOld= 1.00D+10 DXMaxT= 3.00D-01 DXLimC= 3.00D+00 Rises=F
 Iteration  1 RMS(Cart)=  0.09414309 RMS(Int)=  0.08090469
 Iteration  2 RMS(Cart)=  0.08247509 RMS(Int)=  0.05929981
 New curvilinear step failed, DQL= 2.13D-02 SP=-6.92D-01.
 ITry= 2 IFail=1 DXMaxC= 1.47D-01 DCOld= 1.00D+10 DXMaxT= 3.00D-01 DXLimC= 3.00D+00 Rises=F
 Iteration  1 RMS(Cart)=  0.09523088 RMS(Int)=  0.06347339
 Iteration  2 RMS(Cart)=  0.06203839 RMS(Int)=  0.04643318
 New curvilinear step failed, DQL= 2.69D-02 SP=-7.88D-01.
 ITry= 3 IFail=1 DXMaxC= 1.31D-01 DCOld= 1.00D+10 DXMaxT= 3.00D-01 DXLimC= 3.00D+00 Rises=F
 Iteration  1 RMS(Cart)=  0.09593812 RMS(Int)=  0.04935638
 New curvilinear step failed, DQL= 1.90D-02 SP=-5.98D-03.
 ITry= 4 IFail=1 DXMaxC= 1.13D-01 DCOld= 1.00D+10 DXMaxT= 3.00D-01 DXLimC= 3.00D+00 Rises=F
 Iteration  1 RMS(Cart)=  0.08427486 RMS(Int)=  0.04059856
 New curvilinear step failed, DQL= 1.18D-02 SP=-9.73D-02.
 ITry= 5 IFail=1 DXMaxC= 9.94D-02 DCOld= 1.00D+10 DXMaxT= 3.00D-01 DXLimC= 3.00D+00 Rises=F
 Iteration  1 RMS(Cart)=  0.07107484 RMS(Int)=  0.03215061
 New curvilinear step failed, DQL= 7.96D-03 SP=-1.19D-01.
 ITry= 6 IFail=1 DXMaxC= 8.38D-02 DCOld= 1.00D+10 DXMaxT= 3.00D-01 DXLimC= 3.00D+00 Rises=F
 Iteration  1 RMS(Cart)=  0.05778846 RMS(Int)=  0.02371274
 New curvilinear step failed, DQL= 4.41D-03 SP=-1.51D-01.
 ITry= 7 IFail=1 DXMaxC= 6.82D-02 DCOld= 1.00D+10 DXMaxT= 3.00D-01 DXLimC= 3.00D+00 Rises=F
 Iteration  1 RMS(Cart)=  0.04431664 RMS(Int)=  0.01528240
 New curvilinear step failed, DQL= 1.30D-03 SP=-2.03D-01.
 ITry= 8 IFail=1 DXMaxC= 5.23D-02 DCOld= 1.00D+10 DXMaxT= 3.00D-01 DXLimC= 3.00D+00 Rises=F
 Iteration  1 RMS(Cart)=  0.02997071 RMS(Int)=  0.00668566
 Iteration  2 RMS(Cart)=  0.00942583 RMS(Int)=  0.00668318
 Iteration  3 RMS(Cart)=  0.00942277 RMS(Int)=  0.00668279
 Iteration  4 RMS(Cart)=  0.00942222 RMS(Int)=  0.00668279
 Iteration  5 RMS(Cart)=  0.00942222 RMS(Int)=  0.00668279
 Iteration  6 RMS(Cart)=  0.00942222 RMS(Int)=  0.00668279
 Iteration  7 RMS(Cart)=  0.00942222 RMS(Int)=  0.00668279
 Iteration  8 RMS(Cart)=  0.00942222 RMS(Int)=  0.00668279
 Iteration  9 RMS(Cart)=  0.00942222 RMS(Int)=  0.00668279
 Iteration 10 RMS(Cart)=  0.00942222 RMS(Int)=  0.00668279
 Iteration 11 RMS(Cart)=  0.00942222 RMS(Int)=  0.00668279
 Iteration 12 RMS(Cart)=  0.00942222 RMS(Int)=  0.00668279
 Iteration 13 RMS(Cart)=  0.00942222 RMS(Int)=  0.00668279
 Iteration 14 RMS(Cart)=  0.00942222 RMS(Int)=  0.00668279
 Iteration 15 RMS(Cart)=  0.00942222 RMS(Int)=  0.00668279
 Iteration 16 RMS(Cart)=  0.00942222 RMS(Int)=  0.00668279
 Iteration 17 RMS(Cart)=  0.00942222 RMS(Int)=  0.00668279
 Iteration 18 RMS(Cart)=  0.00942222 RMS(Int)=  0.00668279
 Iteration 19 RMS(Cart)=  0.00942222 RMS(Int)=  0.00668279
 Iteration 20 RMS(Cart)=  0.00942222 RMS(Int)=  0.00668279
 Iteration 21 RMS(Cart)=  0.00942222 RMS(Int)=  0.00668279
 Iteration 22 RMS(Cart)=  0.00942222 RMS(Int)=  0.00668279
 Iteration 23 RMS(Cart)=  0.00942222 RMS(Int)=  0.00668279
 Iteration 24 RMS(Cart)=  0.00942222 RMS(Int)=  0.00668279
 Iteration 25 RMS(Cart)=  0.00942222 RMS(Int)=  0.00668279
 Iteration 26 RMS(Cart)=  0.00942222 RMS(Int)=  0.00668279
 Iteration 27 RMS(Cart)=  0.00942222 RMS(Int)=  0.00668279
 Iteration 28 RMS(Cart)=  0.00942222 RMS(Int)=  0.00668279
 Iteration 29 RMS(Cart)=  0.00942222 RMS(Int)=  0.00668279
 Iteration 30 RMS(Cart)=  0.00942222 RMS(Int)=  0.00668279
 Iteration 31 RMS(Cart)=  0.00942222 RMS(Int)=  0.00668279
 Iteration 32 RMS(Cart)=  0.00942222 RMS(Int)=  0.00668279
 Iteration 33 RMS(Cart)=  0.00942222 RMS(Int)=  0.00668279
 Iteration 34 RMS(Cart)=  0.00942222 RMS(Int)=  0.00668279
 Iteration 35 RMS(Cart)=  0.00942222 RMS(Int)=  0.00668279
 Iteration 36 RMS(Cart)=  0.00942222 RMS(Int)=  0.00668279
 Iteration 37 RMS(Cart)=  0.00942222 RMS(Int)=  0.00668279
 Iteration 38 RMS(Cart)=  0.00942222 RMS(Int)=  0.00668279
 Iteration 39 RMS(Cart)=  0.00942222 RMS(Int)=  0.00668279
 Iteration 40 RMS(Cart)=  0.00942222 RMS(Int)=  0.00668279
 Iteration 41 RMS(Cart)=  0.00942222 RMS(Int)=  0.00668279
 Iteration 42 RMS(Cart)=  0.00942222 RMS(Int)=  0.00668279
 Iteration 43 RMS(Cart)=  0.00942222 RMS(Int)=  0.00668279
 Iteration 44 RMS(Cart)=  0.00942222 RMS(Int)=  0.00668279
 Iteration 45 RMS(Cart)=  0.00942222 RMS(Int)=  0.00668279
 Iteration 46 RMS(Cart)=  0.00942222 RMS(Int)=  0.00668279
 Iteration 47 RMS(Cart)=  0.00942222 RMS(Int)=  0.00668279
 Iteration 48 RMS(Cart)=  0.00942222 RMS(Int)=  0.00668279
 Iteration 49 RMS(Cart)=  0.00942222 RMS(Int)=  0.00668279
 Iteration 50 RMS(Cart)=  0.00942222 RMS(Int)=  0.00668279
 Iteration 51 RMS(Cart)=  0.00942222 RMS(Int)=  0.00668279
 Iteration 52 RMS(Cart)=  0.00942222 RMS(Int)=  0.00668279
 Iteration 53 RMS(Cart)=  0.00942222 RMS(Int)=  0.00668279
 Iteration 54 RMS(Cart)=  0.00942222 RMS(Int)=  0.00668279
 Iteration 55 RMS(Cart)=  0.00942222 RMS(Int)=  0.00668279
 Iteration 56 RMS(Cart)=  0.00942222 RMS(Int)=  0.00668279
 Iteration 57 RMS(Cart)=  0.00942222 RMS(Int)=  0.00668279
 Iteration 58 RMS(Cart)=  0.00942222 RMS(Int)=  0.00668279
 Iteration 59 RMS(Cart)=  0.00942222 RMS(Int)=  0.00668279
 Iteration 60 RMS(Cart)=  0.00942222 RMS(Int)=  0.00668279
 Iteration 61 RMS(Cart)=  0.00942222 RMS(Int)=  0.00668279
 Iteration 62 RMS(Cart)=  0.00942222 RMS(Int)=  0.00668279
 Iteration 63 RMS(Cart)=  0.00942222 RMS(Int)=  0.00668279
 Iteration 64 RMS(Cart)=  0.00942222 RMS(Int)=  0.00668279
 Iteration 65 RMS(Cart)=  0.00942222 RMS(Int)=  0.00668279
 Iteration 66 RMS(Cart)=  0.00942222 RMS(Int)=  0.00668279
 Iteration 67 RMS(Cart)=  0.00942222 RMS(Int)=  0.00668279
 Iteration 68 RMS(Cart)=  0.00942222 RMS(Int)=  0.00668279
 Iteration 69 RMS(Cart)=  0.00942222 RMS(Int)=  0.00668279
 Iteration 70 RMS(Cart)=  0.00942222 RMS(Int)=  0.00668279
 Iteration 71 RMS(Cart)=  0.00942222 RMS(Int)=  0.00668279
 Iteration 72 RMS(Cart)=  0.00942222 RMS(Int)=  0.00668279
 Iteration 73 RMS(Cart)=  0.00942222 RMS(Int)=  0.00668279
 Iteration 74 RMS(Cart)=  0.00942222 RMS(Int)=  0.00668279
 Iteration 75 RMS(Cart)=  0.00942222 RMS(Int)=  0.00668279
 Iteration 76 RMS(Cart)=  0.00942222 RMS(Int)=  0.00668279
 Iteration 77 RMS(Cart)=  0.00942222 RMS(Int)=  0.00668279
 Iteration 78 RMS(Cart)=  0.00942222 RMS(Int)=  0.00668279
 Iteration 79 RMS(Cart)=  0.00942222 RMS(Int)=  0.00668279
 Iteration 80 RMS(Cart)=  0.00942222 RMS(Int)=  0.00668279
 Iteration 81 RMS(Cart)=  0.00942222 RMS(Int)=  0.00668279
 Iteration 82 RMS(Cart)=  0.00942222 RMS(Int)=  0.00668279
 Iteration 83 RMS(Cart)=  0.00942222 RMS(Int)=  0.00668279
 Iteration 84 RMS(Cart)=  0.00942222 RMS(Int)=  0.00668279
 Iteration 85 RMS(Cart)=  0.00942222 RMS(Int)=  0.00668279
 Iteration 86 RMS(Cart)=  0.00942222 RMS(Int)=  0.00668279
 Iteration 87 RMS(Cart)=  0.00942222 RMS(Int)=  0.00668279
 Iteration 88 RMS(Cart)=  0.00942222 RMS(Int)=  0.00668279
 Iteration 89 RMS(Cart)=  0.00942222 RMS(Int)=  0.00668279
 Iteration 90 RMS(Cart)=  0.00942222 RMS(Int)=  0.00668279
 Iteration 91 RMS(Cart)=  0.00942222 RMS(Int)=  0.00668279
 Iteration 92 RMS(Cart)=  0.00942222 RMS(Int)=  0.00668279
 Iteration 93 RMS(Cart)=  0.00942222 RMS(Int)=  0.00668279
 Iteration 94 RMS(Cart)=  0.00942222 RMS(Int)=  0.00668279
 Iteration 95 RMS(Cart)=  0.00942222 RMS(Int)=  0.00668279
 Iteration 96 RMS(Cart)=  0.00942222 RMS(Int)=  0.00668279
 Iteration 97 RMS(Cart)=  0.00942222 RMS(Int)=  0.00668279
 Iteration 98 RMS(Cart)=  0.00942222 RMS(Int)=  0.00668279
 Iteration 99 RMS(Cart)=  0.00942222 RMS(Int)=  0.00668279
 Iteration100 RMS(Cart)=  0.00942222 RMS(Int)=  0.00668279
 New curvilinear step not converged.
 ITry= 9 IFail=1 DXMaxC= 3.51D-02 DCOld= 1.00D+10 DXMaxT= 3.00D-01 DXLimC= 3.00D+00 Rises=F
 Iteration  1 RMS(Cart)=  0.01498453 RMS(Int)=  0.00003488
 Iteration  2 RMS(Cart)=  0.00002855 RMS(Int)=  0.00000000
 Iteration  3 RMS(Cart)=  0.00000000 RMS(Int)=  0.00000000
 ITry=10 IFail=0 DXMaxC= 1.77D-02 DCOld= 1.00D+10 DXMaxT= 3.00D-01 DXLimC= 3.00D+00 Rises=F
 ClnCor:  largest displacement from symmetrization is 5.69D-15 for atom     1.
 Variable       Old X    -DE/DX   Delta X   Delta X   Delta X     New X
                                 (Linear)    (Quad)   (Total)
    R1       11.55773  -0.00092   0.00000   0.29024   0.02902  11.58675
    R2        1.85528   0.00002   0.00000  -0.00011  -0.00001   1.85527
    A1        0.00939  -0.00000   0.00000  -0.07590  -0.00759   0.00180
         Item               Value     Threshold  Converged?
 Maximum Force            0.000922     0.000450     NO 
 RMS     Force            0.000532     0.000300     NO 
 Maximum Displacement     0.017691     0.001800     NO 
 RMS     Displacement     0.014997     0.001200     NO 
 Predicted change in Energy= 2.661818D-05
 GradGradGradGradGradGradGradGradGradGradGradGradGradGradGradGradGradGrad

                          Input orientation:                          
 ---------------------------------------------------------------------
 Center     Atomic      Atomic             Coordinates (Angstroms)
 Number     Number       Type             X           Y           Z
 ---------------------------------------------------------------------
      1          8           0        0.176504   -5.742745   -2.218631
      2         17           0       -0.520573   -3.259969   -7.781413
      3          1           0        0.066645   -5.345192   -3.109559
 ---------------------------------------------------------------------
                    Distance matrix (angstroms):
                    1          2          3
     1  O    0.000000
     2  Cl   6.131446   0.000000
     3  H    0.981768   5.149680   0.000000
 This structure is nearly, but not quite of a higher symmetry.
 Consider Symm=Loose if the higher symmetry is desired.
 Stoichiometry    ClHO
 Framework group  C1[X(ClHO)]
 Deg. of freedom     3
 Full point group                 C1      NOp   1
 Omega: Change in point group or standard orientation.

 Old FWG=CS   [SG(Cl1H1O1)]
 New FWG=C01  [X(Cl1H1O1)]
 Largest Abelian subgroup         C1      NOp   1
 Largest concise Abelian subgroup C1      NOp   1
                         Standard orientation:                         
 ---------------------------------------------------------------------
 Center     Atomic      Atomic             Coordinates (Angstroms)
 Number     Number       Type             X           Y           Z
 ---------------------------------------------------------------------
      1          8           0       -3.704074    0.042026    1.629271
      2         17           0        1.908120   -0.021546   -0.839307
      3          1           0       -2.805450    0.030077    1.234048
 ---------------------------------------------------------------------
 Rotational constants (GHZ):   167260425.1775706           1.1950902           1.1950902
 Standard basis: SVP (5D, 7F)
 There are    39 symmetry adapted cartesian basis functions of A   symmetry.
 There are    37 symmetry adapted basis functions of A   symmetry.
    37 basis functions,    69 primitive gaussians,    39 cartesian basis functions
    13 alpha electrons       13 beta electrons
       nuclear repulsion energy        17.7964814946 Hartrees.
 NAtoms=    3 NActive=    3 NUniq=    3 SFac= 1.00D+00 NAtFMM=   60 NAOKFM=F Big=F
 Integral buffers will be    131072 words long.
 Raffenetti 2 integral format.
 Two-electron integral symmetry is turned on.
 Nuclear repulsion after empirical dispersion term =       17.7961886614 Hartrees.
 One-electron integrals computed using PRISM.
 NBasis=    37 RedAO= T EigKep=  5.60D-02  NBF=    37
 NBsUse=    37 1.00D-06 EigRej= -1.00D+00 NBFU=    37
 Initial guess from the checkpoint file:  "/tmp/Gau-5448.chk"
 B after Tr=    -0.000000   -0.000000   -0.000000
         Rot=    0.693831   -0.136597   -0.154388   -0.690003 Ang= -92.13 deg.
 Keep R1 ints in memory in canonical form, NReq=7151157.
 Requested convergence on RMS density matrix=1.00D-08 within 128 cycles.
 Requested convergence on MAX density matrix=1.00D-06.
 Requested convergence on             energy=1.00D-06.
 No special actions if energy rises.
 >>>>>>>>>> Convergence criterion not met.
 SCF Done:  E(RB3LYP) =  -535.579276232     A.U. after  129 cycles
            NFock=128  Conv=0.23D-05     -V/T= 2.0025
 Convergence failure -- run terminated.
 Error termination via Lnk1e in /share/apps/g16.a03/g16/l502.exe at Thu Mar  6 16:42:54 2025.
 Job cpu time:       0 days  0 hours  5 minutes 55.8 seconds.
 Elapsed time:       0 days  0 hours  0 minutes 45.7 seconds.
 File lengths (MBytes):  RWF=      6 Int=      0 D2E=      0 Chk=      1 Scr=      1
