 Entering Gaussian System, Link 0=g16
 Input=ts.gjf
 Output=ts.log
 Initial command:
 /share/apps/g16.a03/g16/l1.exe "/tmp/Gau-10755.inp" -scrdir="/tmp/"
 Entering Link 1 = /share/apps/g16.a03/g16/l1.exe PID=     10756.
  
 Copyright (c) 1988,1990,1992,1993,1995,1998,2003,2009,2016,
            Gaussian, Inc.  All Rights Reserved.
  
 This is part of the Gaussian(R) 16 program.  It is based on
 the Gaussian(R) 09 system (copyright 2009, Gaussian, Inc.),
 the Gaussian(R) 03 system (copyright 2003, Gaussian, Inc.),
 the Gaussian(R) 98 system (copyright 1998, Gaussian, Inc.),
 the Gaussian(R) 94 system (copyright 1995, Gaussian, Inc.),
 the Gaussian 92(TM) system (copyright 1992, Gaussian, Inc.),
 the Gaussian 90(TM) system (copyright 1990, Gaussian, Inc.),
 the Gaussian 88(TM) system (copyright 1988, Gaussian, Inc.),
 the Gaussian 86(TM) system (copyright 1986, Carnegie Mellon
 University), and the Gaussian 82(TM) system (copyright 1983,
 Carnegie Mellon University). Gaussian is a federally registered
 trademark of Gaussian, Inc.
  
 This software contains proprietary and confidential information,
 including trade secrets, belonging to Gaussian, Inc.
  
 This software is provided under written license and may be
 used, copied, transmitted, or stored only in accord with that
 written license.
  
 The following legend is applicable only to US Government
 contracts under FAR:
  
                    RESTRICTED RIGHTS LEGEND
  
 Use, reproduction and disclosure by the US Government is
 subject to restrictions as set forth in subparagraphs (a)
 and (c) of the Commercial Computer Software - Restricted
 Rights clause in FAR 52.227-19.
  
 Gaussian, Inc.
 340 Quinnipiac St., Bldg. 40, Wallingford CT 06492
  
  
 ---------------------------------------------------------------
 Warning -- This program may not be used in any manner that
 competes with the business of Gaussian, Inc. or will provide
 assistance to any competitor of Gaussian, Inc.  The licensee
 of this program is prohibited from giving any competitor of
 Gaussian, Inc. access to this program.  By using this program,
 the user acknowledges that Gaussian, Inc. is engaged in the
 business of creating and licensing software in the field of
 computational chemistry and represents and warrants to the
 licensee that it is not a competitor of Gaussian, Inc. and that
 it will not use this program in any manner prohibited above.
 ---------------------------------------------------------------
  

 Cite this work as:
 Gaussian 16, Revision A.03,
 M. J. Frisch, G. W. Trucks, H. B. Schlegel, G. E. Scuseria, 
 M. A. Robb, J. R. Cheeseman, G. Scalmani, V. Barone, 
 G. A. Petersson, H. Nakatsuji, X. Li, M. Caricato, A. V. Marenich, 
 J. Bloino, B. G. Janesko, R. Gomperts, B. Mennucci, H. P. Hratchian, 
 J. V. Ortiz, A. F. Izmaylov, J. L. Sonnenberg, D. Williams-Young, 
 F. Ding, F. Lipparini, F. Egidi, J. Goings, B. Peng, A. Petrone, 
 T. Henderson, D. Ranasinghe, V. G. Zakrzewski, J. Gao, N. Rega, 
 G. Zheng, W. Liang, M. Hada, M. Ehara, K. Toyota, R. Fukuda, 
 J. Hasegawa, M. Ishida, T. Nakajima, Y. Honda, O. Kitao, H. Nakai, 
 T. Vreven, K. Throssell, J. A. Montgomery, Jr., J. E. Peralta, 
 F. Ogliaro, M. J. Bearpark, J. J. Heyd, E. N. Brothers, K. N. Kudin, 
 V. N. Staroverov, T. A. Keith, R. Kobayashi, J. Normand, 
 K. Raghavachari, A. P. Rendell, J. C. Burant, S. S. Iyengar, 
 J. Tomasi, M. Cossi, J. M. Millam, M. Klene, C. Adamo, R. Cammi, 
 J. W. Ochterski, R. L. Martin, K. Morokuma, O. Farkas, 
 J. B. Foresman, and D. J. Fox, Gaussian, Inc., Wallingford CT, 2016.
 
 ******************************************
 Gaussian 16:  EM64L-G16RevA.03 25-Dec-2016
                 6-Mar-2025 
 ******************************************
 %nproc=8
 Will use up to    8 processors via shared memory.
 %mem=4000MB
 --------------------------------------------------------------------
 #opt=(noeigen,calcfc,ts,recalc=5,maxcyc=200) freq B3LYP/SVP em=GD3BJ
 --------------------------------------------------------------------
 1/5=1,6=200,10=4,11=1,18=20,26=3,38=1,71=5/1,3;
 2/9=110,12=2,17=6,18=5,40=1/2;
 3/5=18,7=101,11=2,25=1,30=1,71=2,74=-5,124=41,140=1/1,2,3;
 4//1;
 5/5=2,38=5/2;
 8/6=4,10=90,11=11/1;
 11/6=1,8=1,9=11,15=111,16=1/1,2,10;
 10/6=1,13=1/2;
 6/7=2,8=2,9=2,10=2,28=1/1;
 7/10=1,18=20,25=1/1,2,3,16;
 1/5=1,6=200,10=4,11=1,18=20,26=3,71=5/3(2);
 2/9=110/2;
 99//99;
 2/9=110/2;
 3/5=18,7=101,11=2,25=1,30=1,71=1,74=-5,124=41/1,2,3;
 4/5=5,16=3,69=1/1;
 5/5=2,38=5/2;
 7//1,2,3,16;
 1/5=1,6=200,11=1,18=20,26=3,71=5/3(-5);
 2/9=110/2;
 6/7=2,8=2,9=2,10=2,19=2,28=1/1;
 99/9=1/99;
 -----------
 ts-1287.gjf
 -----------
 Symbolic Z-matrix:
 Charge =  0 Multiplicity = 1
 O                     2.56379  -4.42813   3.11033 
 Cl                    3.93239  -3.3829    2.85312 
 H                     2.73538  -5.21822   2.5681 
 

 GradGradGradGradGradGradGradGradGradGradGradGradGradGradGradGradGradGrad
 Berny optimization.
 Initialization pass.
                           ----------------------------
                           !    Initial Parameters    !
                           ! (Angstroms and Degrees)  !
 --------------------------                            --------------------------
 ! Name  Definition              Value          Derivative Info.                !
 --------------------------------------------------------------------------------
 ! R1    R(1,2)                  1.7412         calculate D2E/DX2 analytically  !
 ! R2    R(1,3)                  0.9735         calculate D2E/DX2 analytically  !
 ! A1    A(2,1,3)              105.4485         calculate D2E/DX2 analytically  !
 --------------------------------------------------------------------------------
 Trust Radius=3.00D-01 FncErr=1.00D-07 GrdErr=1.00D-06 EigMax=2.50D+02 EigMin=1.00D-04
 Number of steps in this run=    100 maximum allowed number of steps=    100.
 Search for a saddle point of order  1.
 GradGradGradGradGradGradGradGradGradGradGradGradGradGradGradGradGradGrad

                          Input orientation:                          
 ---------------------------------------------------------------------
 Center     Atomic      Atomic             Coordinates (Angstroms)
 Number     Number       Type             X           Y           Z
 ---------------------------------------------------------------------
      1          8           0        2.563786   -4.428125    3.110330
      2         17           0        3.932393   -3.382898    2.853120
      3          1           0        2.735379   -5.218220    2.568096
 ---------------------------------------------------------------------
                    Distance matrix (angstroms):
                    1          2          3
     1  O    0.000000
     2  Cl   1.741190   0.000000
     3  H    0.973505   2.209635   0.000000
 Stoichiometry    ClHO
 Framework group  CS[SG(ClHO)]
 Deg. of freedom     3
 Full point group                 CS      NOp   2
 Largest Abelian subgroup         CS      NOp   2
 Largest concise Abelian subgroup C1      NOp   1
                         Standard orientation:                         
 ---------------------------------------------------------------------
 Center     Atomic      Atomic             Coordinates (Angstroms)
 Number     Number       Type             X           Y           Z
 ---------------------------------------------------------------------
      1          8           0        0.036090    1.128497    0.000000
      2         17           0        0.036090   -0.612693   -0.000000
      3          1           0       -0.902242    1.387812    0.000000
 ---------------------------------------------------------------------
 Rotational constants (GHZ):         618.1865698          14.2701013          13.9481255
 Standard basis: SVP (5D, 7F)
 There are    29 symmetry adapted cartesian basis functions of A'  symmetry.
 There are    10 symmetry adapted cartesian basis functions of A"  symmetry.
 There are    27 symmetry adapted basis functions of A'  symmetry.
 There are    10 symmetry adapted basis functions of A"  symmetry.
    37 basis functions,    69 primitive gaussians,    39 cartesian basis functions
    13 alpha electrons       13 beta electrons
       nuclear repulsion energy        49.7526126872 Hartrees.
 NAtoms=    3 NActive=    3 NUniq=    3 SFac= 1.00D+00 NAtFMM=   60 NAOKFM=F Big=F
 Integral buffers will be    131072 words long.
 Raffenetti 2 integral format.
 Two-electron integral symmetry is turned on.
 Nuclear repulsion after empirical dispersion term =       49.7510025300 Hartrees.
 One-electron integrals computed using PRISM.
 NBasis=    37 RedAO= T EigKep=  3.68D-02  NBF=    27    10
 NBsUse=    37 1.00D-06 EigRej= -1.00D+00 NBFU=    27    10
 ExpMin= 1.22D-01 ExpMax= 1.04D+04 ExpMxC= 1.57D+03 IAcc=3 IRadAn=         5 AccDes= 0.00D+00
 Harris functional with IExCor=  402 and IRadAn=       5 diagonalized for initial guess.
 HarFok:  IExCor=  402 AccDes= 0.00D+00 IRadAn=         5 IDoV= 1 UseB2=F ITyADJ=14
 ICtDFT=  3500011 ScaDFX=  1.000000  1.000000  1.000000  1.000000
 FoFCou: FMM=F IPFlag=           0 FMFlag=      100000 FMFlg1=           0
         NFxFlg=           0 DoJE=T BraDBF=F KetDBF=T FulRan=T
         wScrn=  0.000000 ICntrl=       500 IOpCl=  0 I1Cent=   200000004 NGrid=           0
         NMat0=    1 NMatS0=      1 NMatT0=    0 NMatD0=    1 NMtDS0=    0 NMtDT0=    0
 Petite list used in FoFCou.
 Initial guess orbital symmetries:
       Occupied  (A') (A') (A') (A') (A') (A") (A') (A') (A') (A')
                 (A") (A') (A")
       Virtual   (A') (A') (A') (A') (A') (A") (A') (A') (A") (A')
                 (A") (A') (A") (A') (A') (A') (A") (A') (A') (A")
                 (A') (A") (A') (A')
 The electronic state of the initial guess is 1-A'.
 Keep R1 ints in memory in symmetry-blocked form, NReq=7153137.
 Requested convergence on RMS density matrix=1.00D-08 within 128 cycles.
 Requested convergence on MAX density matrix=1.00D-06.
 Requested convergence on             energy=1.00D-06.
 No special actions if energy rises.
 Integral accuracy reduced to 1.0D-05 until final iterations.
 Initial convergence to 1.0D-05 achieved.  Increase integral accuracy.
 SCF Done:  E(RB3LYP) =  -535.759603322     A.U. after   12 cycles
            NFock= 12  Conv=0.46D-08     -V/T= 2.0026
 DoSCS=F DFT=T ScalE2(SS,OS)=  1.000000  1.000000
 Range of M.O.s used for correlation:     1    37
 NBasis=    37 NAE=    13 NBE=    13 NFC=     0 NFV=     0
 NROrb=     37 NOA=    13 NOB=    13 NVA=    24 NVB=    24
 Symmetrizing basis deriv contribution to polar:
 IMax=3 JMax=2 DiffMx= 0.00D+00
 G2DrvN: will do     4 centers at a time, making    1 passes.
 Calling FoFCou, ICntrl=  3107 FMM=F I1Cent=   0 AccDes= 0.00D+00.
 End of G2Drv F.D. properties file   721 does not exist.
 End of G2Drv F.D. properties file   722 does not exist.
 End of G2Drv F.D. properties file   788 does not exist.
          IDoAtm=111
          Differentiating once with respect to nuclear coordinates.
 Keep R1 ints in memory in symmetry-blocked form, NReq=7127942.
          There are    12 degrees of freedom in the 1st order CPHF.  IDoFFX=6 NUNeed=     0.
      6 vectors produced by pass  0 Test12= 2.60D-15 8.33D-09 XBig12= 7.62D-02 1.93D-01.
 AX will form     6 AO Fock derivatives at one time.
      6 vectors produced by pass  1 Test12= 2.60D-15 8.33D-09 XBig12= 2.16D-02 7.48D-02.
      6 vectors produced by pass  2 Test12= 2.60D-15 8.33D-09 XBig12= 6.87D-04 6.76D-03.
      6 vectors produced by pass  3 Test12= 2.60D-15 8.33D-09 XBig12= 1.70D-05 1.14D-03.
      6 vectors produced by pass  4 Test12= 2.60D-15 8.33D-09 XBig12= 1.34D-07 1.13D-04.
      6 vectors produced by pass  5 Test12= 2.60D-15 8.33D-09 XBig12= 6.89D-10 8.06D-06.
      3 vectors produced by pass  6 Test12= 2.60D-15 8.33D-09 XBig12= 7.20D-13 3.24D-07.
 InvSVY:  IOpt=1 It=  1 EMax= 2.22D-16
 Solved reduced A of dimension    39 with     6 vectors.
 End of Minotr F.D. properties file   721 does not exist.
 End of Minotr F.D. properties file   722 does not exist.
 End of Minotr F.D. properties file   788 does not exist.

 **********************************************************************

            Population analysis using the SCF density.

 **********************************************************************

 Orbital symmetries:
       Occupied  (A') (A') (A') (A') (A') (A") (A') (A') (A') (A')
                 (A") (A') (A")
       Virtual   (A') (A') (A') (A') (A') (A") (A') (A') (A") (A')
                 (A") (A') (A") (A') (A') (A') (A") (A') (A') (A")
                 (A') (A") (A') (A')
 The electronic state is 1-A'.
 Alpha  occ. eigenvalues -- -101.54077 -19.19604  -9.49246  -7.26584  -7.24955
 Alpha  occ. eigenvalues --   -7.24920  -1.03805  -0.79289  -0.52064  -0.42678
 Alpha  occ. eigenvalues --   -0.39449  -0.31366  -0.28030
 Alpha virt. eigenvalues --   -0.07764   0.06080   0.45406   0.54749   0.69209
 Alpha virt. eigenvalues --    0.69740   0.71455   0.76142   0.76255   0.84079
 Alpha virt. eigenvalues --    0.84660   0.94747   0.99802   1.04124   1.11490
 Alpha virt. eigenvalues --    1.30147   1.41926   1.57646   2.15917   2.61765
 Alpha virt. eigenvalues --    2.84033   2.92165   2.93157   3.63951
          Condensed to atoms (all electrons):
               1          2          3
     1  O    7.880579   0.121988   0.303944
     2  Cl   0.121988  16.805009  -0.021260
     3  H    0.303944  -0.021260   0.505070
 Mulliken charges:
               1
     1  O   -0.306510
     2  Cl   0.094264
     3  H    0.212247
 Sum of Mulliken charges =  -0.00000
 Mulliken charges with hydrogens summed into heavy atoms:
               1
     1  O   -0.094264
     2  Cl   0.094264
 APT charges:
               1
     1  O   -0.565138
     2  Cl   0.114261
     3  H    0.450877
 Sum of APT charges =  -0.00000
 APT charges with hydrogens summed into heavy atoms:
               1
     1  O   -0.114261
     2  Cl   0.114261
 Electronic spatial extent (au):  <R**2>=            107.1738
 Charge=             -0.0000 electrons
 Dipole moment (field-independent basis, Debye):
    X=             -1.6650    Y=              0.1116    Z=              0.0000  Tot=              1.6687
 Quadrupole moment (field-independent basis, Debye-Ang):
   XX=            -16.6012   YY=            -16.0411   ZZ=            -18.6049
   XY=             -2.6683   XZ=              0.0000   YZ=              0.0000
 Traceless Quadrupole moment (field-independent basis, Debye-Ang):
   XX=              0.4812   YY=              1.0413   ZZ=             -1.5225
   XY=             -2.6683   XZ=              0.0000   YZ=              0.0000
 Octapole moment (field-independent basis, Debye-Ang**2):
  XXX=             -2.1072  YYY=              1.2752  ZZZ=             -0.0000  XYY=             -3.8069
  XXY=              3.2641  XXZ=             -0.0000  XZZ=             -0.2430  YZZ=              0.6325
  YYZ=             -0.0000  XYZ=             -0.0000
 Hexadecapole moment (field-independent basis, Debye-Ang**3):
 XXXX=            -16.8694 YYYY=            -78.2037 ZZZZ=            -16.6246 XXXY=             -0.4288
 XXXZ=              0.0000 YYYX=             -3.8236 YYYZ=              0.0000 ZZZX=              0.0000
 ZZZY=              0.0000 XXYY=            -14.9121 XXZZ=             -5.8558 YYZZ=            -18.2343
 XXYZ=              0.0000 YYXZ=             -0.0000 ZZXY=              0.5269
 N-N= 4.975100252999D+01 E-N=-1.372500416152D+03  KE= 5.343474170011D+02
 Symmetry A'   KE= 4.835951472943D+02
 Symmetry A"   KE= 5.075226970676D+01
  Exact polarizability:   0.000   0.000   0.000   0.000   0.000   0.000
 Approx polarizability:  14.324  -1.531  37.088  -0.000  -0.000  10.145
 Calling FoFJK, ICntrl=    100147 FMM=F ISym2X=1 I1Cent= 0 IOpClX= 0 NMat=1 NMatS=1 NMatT=0.
 ***** Axes restored to original set *****
 -------------------------------------------------------------------
 Center     Atomic                   Forces (Hartrees/Bohr)
 Number     Number              X              Y              Z
 -------------------------------------------------------------------
      1        8           0.001971515    0.005975046    0.002103924
      2       17          -0.007323902   -0.009070580   -0.000548710
      3        1           0.005352387    0.003095535   -0.001555214
 -------------------------------------------------------------------
 Cartesian Forces:  Max     0.009070580 RMS     0.004954007
 FormGI is forming the generalized inverse of G from B-inverse, IUseBI=4.

 GradGradGradGradGradGradGradGradGradGradGradGradGradGradGradGradGradGrad
 Berny optimization.
 Internal  Forces:  Max     0.011656840 RMS     0.009310249
 Search for a saddle point.
 Step number   1 out of a maximum of  100
 All quantities printed in internal units (Hartrees-Bohrs-Radians)
 Swapping is turned off.
 Second derivative matrix not updated -- analytic derivatives used.
 The second derivative matrix:
                          R1        R2        A1
           R1           0.20531
           R2          -0.01016   0.50246
           A1           0.04595  -0.00282   0.17752
 ITU=  0
     Eigenvalues ---    0.14337   0.23905   0.50287
 Eigenvectors required to have negative eigenvalues:
                          A1        R1        R2
   1                   -0.80225   0.59690   0.01060
 RFO step:  Lambda0=1.434172893D-01 Lambda=-1.05249172D-03.
 Linear search not attempted -- option 19 set.
 Iteration  1 RMS(Cart)=  0.03954084 RMS(Int)=  0.00011734
 Iteration  2 RMS(Cart)=  0.00008652 RMS(Int)=  0.00000000
 Iteration  3 RMS(Cart)=  0.00000000 RMS(Int)=  0.00000000
 ClnCor:  largest displacement from symmetrization is 4.53D-15 for atom     3.
 Variable       Old X    -DE/DX   Delta X   Delta X   Delta X     New X
                                 (Linear)    (Quad)   (Total)
    R1        3.29037  -0.01112   0.00000  -0.09257  -0.09257   3.19780
    R2        1.83966  -0.00070   0.00000  -0.00345  -0.00345   1.83621
    A1        1.84042  -0.01166   0.00000   0.01360   0.01360   1.85403
         Item               Value     Threshold  Converged?
 Maximum Force            0.011657     0.000450     NO 
 RMS     Force            0.009310     0.000300     NO 
 Maximum Displacement     0.039371     0.001800     NO 
 RMS     Displacement     0.039561     0.001200     NO 
 Predicted change in Energy=-3.514983D-05
 GradGradGradGradGradGradGradGradGradGradGradGradGradGradGradGradGradGrad

                          Input orientation:                          
 ---------------------------------------------------------------------
 Center     Atomic      Atomic             Coordinates (Angstroms)
 Number     Number       Type             X           Y           Z
 ---------------------------------------------------------------------
      1          8           0        2.580611   -4.416450    3.106518
      2         17           0        3.911559   -3.402063    2.855234
      3          1           0        2.739389   -5.210730    2.569794
 ---------------------------------------------------------------------
                    Distance matrix (angstroms):
                    1          2          3
     1  O    0.000000
     2  Cl   1.692202   0.000000
     3  H    0.971681   2.174106   0.000000
 Stoichiometry    ClHO
 Framework group  CS[SG(ClHO)]
 Deg. of freedom     3
 Full point group                 CS      NOp   2
 Largest Abelian subgroup         CS      NOp   2
 Largest concise Abelian subgroup C1      NOp   1
                         Standard orientation:                         
 ---------------------------------------------------------------------
 Center     Atomic      Atomic             Coordinates (Angstroms)
 Number     Number       Type             X           Y           Z
 ---------------------------------------------------------------------
      1          8           0        0.035883    1.095996    0.000000
      2         17           0        0.035883   -0.596206   -0.000000
      3          1           0       -0.897083    1.367542    0.000000
 ---------------------------------------------------------------------
 Rotational constants (GHZ):         626.4143798          15.0818293          14.7272496
 Standard basis: SVP (5D, 7F)
 There are    29 symmetry adapted cartesian basis functions of A'  symmetry.
 There are    10 symmetry adapted cartesian basis functions of A"  symmetry.
 There are    27 symmetry adapted basis functions of A'  symmetry.
 There are    10 symmetry adapted basis functions of A"  symmetry.
    37 basis functions,    69 primitive gaussians,    39 cartesian basis functions
    13 alpha electrons       13 beta electrons
       nuclear repulsion energy        51.0238549193 Hartrees.
 NAtoms=    3 NActive=    3 NUniq=    3 SFac= 1.00D+00 NAtFMM=   60 NAOKFM=F Big=F
 Integral buffers will be    131072 words long.
 Raffenetti 2 integral format.
 Two-electron integral symmetry is turned on.
 Nuclear repulsion after empirical dispersion term =       51.0222410129 Hartrees.
 One-electron integrals computed using PRISM.
 NBasis=    37 RedAO= T EigKep=  3.40D-02  NBF=    27    10
 NBsUse=    37 1.00D-06 EigRej= -1.00D+00 NBFU=    27    10
 Initial guess from the checkpoint file:  "/tmp/Gau-10756.chk"
 B after Tr=    -0.000000   -0.000000   -0.000000
         Rot=    1.000000   -0.000000    0.000000   -0.000307 Ang=  -0.04 deg.
 Initial guess orbital symmetries:
       Occupied  (A') (A') (A') (A') (A') (A") (A') (A') (A') (A')
                 (A") (A') (A")
       Virtual   (A') (A') (A') (A') (A') (A") (A') (A') (A") (A')
                 (A") (A') (A") (A') (A') (A') (A") (A') (A') (A")
                 (A') (A") (A') (A')
 ExpMin= 1.22D-01 ExpMax= 1.04D+04 ExpMxC= 1.57D+03 IAcc=2 IRadAn=         4 AccDes= 0.00D+00
 Harris functional with IExCor=  402 and IRadAn=       4 diagonalized for initial guess.
 HarFok:  IExCor=  402 AccDes= 0.00D+00 IRadAn=         4 IDoV= 1 UseB2=F ITyADJ=14
 ICtDFT=  3500011 ScaDFX=  1.000000  1.000000  1.000000  1.000000
 FoFCou: FMM=F IPFlag=           0 FMFlag=      100000 FMFlg1=           0
         NFxFlg=           0 DoJE=T BraDBF=F KetDBF=T FulRan=T
         wScrn=  0.000000 ICntrl=       500 IOpCl=  0 I1Cent=   200000004 NGrid=           0
         NMat0=    1 NMatS0=      1 NMatT0=    0 NMatD0=    1 NMtDS0=    0 NMtDT0=    0
 Petite list used in FoFCou.
 Keep R1 ints in memory in symmetry-blocked form, NReq=7153137.
 Requested convergence on RMS density matrix=1.00D-08 within 128 cycles.
 Requested convergence on MAX density matrix=1.00D-06.
 Requested convergence on             energy=1.00D-06.
 No special actions if energy rises.
 Integral accuracy reduced to 1.0D-05 until final iterations.
 Initial convergence to 1.0D-05 achieved.  Increase integral accuracy.
 SCF Done:  E(RB3LYP) =  -535.759559298     A.U. after   11 cycles
            NFock= 11  Conv=0.44D-08     -V/T= 2.0025
 Calling FoFJK, ICntrl=      2127 FMM=F ISym2X=1 I1Cent= 0 IOpClX= 0 NMat=1 NMatS=1 NMatT=0.
 ***** Axes restored to original set *****
 -------------------------------------------------------------------
 Center     Atomic                   Forces (Hartrees/Bohr)
 Number     Number              X              Y              Z
 -------------------------------------------------------------------
      1        8          -0.013485978   -0.005812704    0.005018564
      2       17           0.008970806    0.003917626   -0.003310064
      3        1           0.004515172    0.001895077   -0.001708500
 -------------------------------------------------------------------
 Cartesian Forces:  Max     0.013485978 RMS     0.006450856

 GradGradGradGradGradGradGradGradGradGradGradGradGradGradGradGradGradGrad
 Berny optimization.
 FormGI is forming the generalized inverse of G from B-inverse, IUseBI=4.
 Internal  Forces:  Max     0.009895856 RMS     0.007927908
 Search for a saddle point.
 Step number   2 out of a maximum of  100
 All quantities printed in internal units (Hartrees-Bohrs-Radians)
 Swapping is turned off.
 Update second derivatives using D2CorX and points    1    2
 The second derivative matrix:
                          R1        R2        A1
           R1           0.23465
           R2          -0.01010   0.50246
           A1           0.04932  -0.00279   0.17778
 ITU=  0  0
     Eigenvalues ---    0.14926   0.26272   0.50291
 Eigenvectors required to have negative eigenvalues:
                          A1        R1        R2
   1                    0.86551  -0.50084  -0.00747
 RFO step:  Lambda0=1.504183707D-01 Lambda=-5.48556354D-05.
 Linear search not attempted -- option 19 set.
 Iteration  1 RMS(Cart)=  0.01511216 RMS(Int)=  0.00010871
 Iteration  2 RMS(Cart)=  0.00008334 RMS(Int)=  0.00000000
 Iteration  3 RMS(Cart)=  0.00000000 RMS(Int)=  0.00000000
 ClnCor:  largest displacement from symmetrization is 2.81D-15 for atom     3.
 Variable       Old X    -DE/DX   Delta X   Delta X   Delta X     New X
                                 (Linear)    (Quad)   (Total)
    R1        3.19780   0.00990   0.00000   0.00526   0.00526   3.20306
    R2        1.83621   0.00013   0.00000   0.00025   0.00025   1.83646
    A1        1.85403  -0.00952   0.00000   0.01974   0.01974   1.87377
         Item               Value     Threshold  Converged?
 Maximum Force            0.009896     0.000450     NO 
 RMS     Force            0.007928     0.000300     NO 
 Maximum Displacement     0.013799     0.001800     NO 
 RMS     Displacement     0.015084     0.001200     NO 
 Predicted change in Energy= 1.787754D-04
 GradGradGradGradGradGradGradGradGradGradGradGradGradGradGradGradGradGrad

                          Input orientation:                          
 ---------------------------------------------------------------------
 Center     Atomic      Atomic             Coordinates (Angstroms)
 Number     Number       Type             X           Y           Z
 ---------------------------------------------------------------------
      1          8           0        2.585111   -4.417423    3.103230
      2         17           0        3.914360   -3.394822    2.857532
      3          1           0        2.732087   -5.216998    2.570783
 ---------------------------------------------------------------------
                    Distance matrix (angstroms):
                    1          2          3
     1  O    0.000000
     2  Cl   1.694987   0.000000
     3  H    0.971813   2.190963   0.000000
 Stoichiometry    ClHO
 Framework group  CS[SG(ClHO)]
 Deg. of freedom     3
 Full point group                 CS      NOp   2
 Largest Abelian subgroup         CS      NOp   2
 Largest concise Abelian subgroup C1      NOp   1
                         Standard orientation:                         
 ---------------------------------------------------------------------
 Center     Atomic      Atomic             Coordinates (Angstroms)
 Number     Number       Type             X           Y           Z
 ---------------------------------------------------------------------
      1          8           0        0.035675    1.097109    0.000000
      2         17           0        0.035675   -0.597878    0.000000
      3          1           0       -0.891876    1.387057   -0.000000
 ---------------------------------------------------------------------
 Rotational constants (GHZ):         634.7240184          15.0092366          14.6625140
 Standard basis: SVP (5D, 7F)
 There are    29 symmetry adapted cartesian basis functions of A'  symmetry.
 There are    10 symmetry adapted cartesian basis functions of A"  symmetry.
 There are    27 symmetry adapted basis functions of A'  symmetry.
 There are    10 symmetry adapted basis functions of A"  symmetry.
    37 basis functions,    69 primitive gaussians,    39 cartesian basis functions
    13 alpha electrons       13 beta electrons
       nuclear repulsion energy        50.9215421227 Hartrees.
 NAtoms=    3 NActive=    3 NUniq=    3 SFac= 1.00D+00 NAtFMM=   60 NAOKFM=F Big=F
 Integral buffers will be    131072 words long.
 Raffenetti 2 integral format.
 Two-electron integral symmetry is turned on.
 Nuclear repulsion after empirical dispersion term =       50.9199295067 Hartrees.
 One-electron integrals computed using PRISM.
 NBasis=    37 RedAO= T EigKep=  3.43D-02  NBF=    27    10
 NBsUse=    37 1.00D-06 EigRej= -1.00D+00 NBFU=    27    10
 Initial guess from the checkpoint file:  "/tmp/Gau-10756.chk"
 B after Tr=     0.000000    0.000000    0.000000
         Rot=    1.000000    0.000000    0.000000    0.000696 Ang=   0.08 deg.
 Initial guess orbital symmetries:
       Occupied  (A') (A') (A') (A') (A') (A") (A') (A') (A') (A')
                 (A") (A') (A")
       Virtual   (A') (A') (A') (A') (A') (A") (A') (A') (A") (A')
                 (A") (A') (A") (A') (A') (A') (A") (A') (A') (A")
                 (A') (A") (A') (A')
 Keep R1 ints in memory in symmetry-blocked form, NReq=7153137.
 Requested convergence on RMS density matrix=1.00D-08 within 128 cycles.
 Requested convergence on MAX density matrix=1.00D-06.
 Requested convergence on             energy=1.00D-06.
 No special actions if energy rises.
 SCF Done:  E(RB3LYP) =  -535.759378519     A.U. after    8 cycles
            NFock=  8  Conv=0.89D-08     -V/T= 2.0025
 Calling FoFJK, ICntrl=      2127 FMM=F ISym2X=1 I1Cent= 0 IOpClX= 0 NMat=1 NMatS=1 NMatT=0.
 ***** Axes restored to original set *****
 -------------------------------------------------------------------
 Center     Atomic                   Forces (Hartrees/Bohr)
 Number     Number              X              Y              Z
 -------------------------------------------------------------------
      1        8          -0.013912452   -0.004340455    0.006094142
      2       17           0.007550065    0.001688940   -0.003676228
      3        1           0.006362387    0.002651515   -0.002417914
 -------------------------------------------------------------------
 Cartesian Forces:  Max     0.013912452 RMS     0.006465824

 GradGradGradGradGradGradGradGradGradGradGradGradGradGradGradGradGradGrad
 Berny optimization.
 FormGI is forming the generalized inverse of G from B-inverse, IUseBI=4.
 Internal  Forces:  Max     0.013412337 RMS     0.008864664
 Search for a saddle point.
 Step number   3 out of a maximum of  100
 All quantities printed in internal units (Hartrees-Bohrs-Radians)
 Swapping is turned off.
 Update second derivatives using D2CorX and points    1    2    3
 The second derivative matrix:
                          R1        R2        A1
           R1           0.24249
           R2          -0.00975   0.50247
           A1           0.05821  -0.00240   0.18175
 ITU=  0  0  0
     Eigenvalues ---    0.14644   0.27737   0.50291
 Eigenvectors required to have negative eigenvalues:
                          A1        R1        R2
   1                    0.85478  -0.51892  -0.00845
 RFO step:  Lambda0=1.480260287D-01 Lambda=-1.18259545D-06.
 Linear search not attempted -- option 19 set.
 Iteration  1 RMS(Cart)=  0.00118189 RMS(Int)=  0.00000023
 Iteration  2 RMS(Cart)=  0.00000019 RMS(Int)=  0.00000000
 ClnCor:  largest displacement from symmetrization is 1.26D-15 for atom     1.
 Variable       Old X    -DE/DX   Delta X   Delta X   Delta X     New X
                                 (Linear)    (Quad)   (Total)
    R1        3.20306   0.00747   0.00000  -0.00283  -0.00283   3.20023
    R2        1.83646   0.00011   0.00000  -0.00011  -0.00011   1.83635
    A1        1.87377  -0.01341   0.00000   0.00069   0.00069   1.87446
         Item               Value     Threshold  Converged?
 Maximum Force            0.013412     0.000450     NO 
 RMS     Force            0.008865     0.000300     NO 
 Maximum Displacement     0.001164     0.001800     YES
 RMS     Displacement     0.001182     0.001200     YES
 Predicted change in Energy= 3.140248D-05
 GradGradGradGradGradGradGradGradGradGradGradGradGradGradGradGradGradGrad

                          Input orientation:                          
 ---------------------------------------------------------------------
 Center     Atomic      Atomic             Coordinates (Angstroms)
 Number     Number       Type             X           Y           Z
 ---------------------------------------------------------------------
      1          8           0        2.585700   -4.417073    3.103065
      2         17           0        3.913744   -3.395331    2.857627
      3          1           0        2.732115   -5.216839    2.570854
 ---------------------------------------------------------------------
                    Distance matrix (angstroms):
                    1          2          3
     1  O    0.000000
     2  Cl   1.693487   0.000000
     3  H    0.971757   2.190064   0.000000
 Stoichiometry    ClHO
 Framework group  CS[SG(ClHO)]
 Deg. of freedom     3
 Full point group                 CS      NOp   2
 Largest Abelian subgroup         CS      NOp   2
 Largest concise Abelian subgroup C1      NOp   1
                         Standard orientation:                         
 ---------------------------------------------------------------------
 Center     Atomic      Atomic             Coordinates (Angstroms)
 Number     Number       Type             X           Y           Z
 ---------------------------------------------------------------------
      1          8           0        0.035665    1.096104    0.000000
      2         17           0        0.035665   -0.597383   -0.000000
      3          1           0       -0.891631    1.386679    0.000000
 ---------------------------------------------------------------------
 Rotational constants (GHZ):         635.1230619          15.0346449          14.6869745
 Standard basis: SVP (5D, 7F)
 There are    29 symmetry adapted cartesian basis functions of A'  symmetry.
 There are    10 symmetry adapted cartesian basis functions of A"  symmetry.
 There are    27 symmetry adapted basis functions of A'  symmetry.
 There are    10 symmetry adapted basis functions of A"  symmetry.
    37 basis functions,    69 primitive gaussians,    39 cartesian basis functions
    13 alpha electrons       13 beta electrons
       nuclear repulsion energy        50.9610853800 Hartrees.
 NAtoms=    3 NActive=    3 NUniq=    3 SFac= 1.00D+00 NAtFMM=   60 NAOKFM=F Big=F
 Integral buffers will be    131072 words long.
 Raffenetti 2 integral format.
 Two-electron integral symmetry is turned on.
 Nuclear repulsion after empirical dispersion term =       50.9594726650 Hartrees.
 One-electron integrals computed using PRISM.
 NBasis=    37 RedAO= T EigKep=  3.42D-02  NBF=    27    10
 NBsUse=    37 1.00D-06 EigRej= -1.00D+00 NBFU=    27    10
 Initial guess from the checkpoint file:  "/tmp/Gau-10756.chk"
 B after Tr=     0.000000    0.000000    0.000000
         Rot=    1.000000   -0.000000    0.000000    0.000000 Ang=   0.00 deg.
 Initial guess orbital symmetries:
       Occupied  (A') (A') (A') (A') (A') (A") (A') (A') (A') (A')
                 (A") (A') (A")
       Virtual   (A') (A') (A') (A') (A') (A") (A') (A') (A") (A')
                 (A") (A') (A") (A') (A') (A') (A") (A') (A') (A")
                 (A') (A") (A') (A')
 Keep R1 ints in memory in symmetry-blocked form, NReq=7153137.
 Requested convergence on RMS density matrix=1.00D-08 within 128 cycles.
 Requested convergence on MAX density matrix=1.00D-06.
 Requested convergence on             energy=1.00D-06.
 No special actions if energy rises.
 SCF Done:  E(RB3LYP) =  -535.759347027     A.U. after    7 cycles
            NFock=  7  Conv=0.45D-08     -V/T= 2.0025
 Calling FoFJK, ICntrl=      2127 FMM=F ISym2X=1 I1Cent= 0 IOpClX= 0 NMat=1 NMatS=1 NMatT=0.
 ***** Axes restored to original set *****
 -------------------------------------------------------------------
 Center     Atomic                   Forces (Hartrees/Bohr)
 Number     Number              X              Y              Z
 -------------------------------------------------------------------
      1        8          -0.014460450   -0.004738622    0.006208396
      2       17           0.008102286    0.002116420   -0.003776832
      3        1           0.006358164    0.002622201   -0.002431564
 -------------------------------------------------------------------
 Cartesian Forces:  Max     0.014460450 RMS     0.006730600

 GradGradGradGradGradGradGradGradGradGradGradGradGradGradGradGradGradGrad
 Berny optimization.
 FormGI is forming the generalized inverse of G from B-inverse, IUseBI=4.
 Internal  Forces:  Max     0.013392906 RMS     0.009060395
 Search for a saddle point.
 Step number   4 out of a maximum of  100
 All quantities printed in internal units (Hartrees-Bohrs-Radians)
 Swapping is turned off.
 Update second derivatives using D2CorX and points    1    2    3    4
 The second derivative matrix:
                          R1        R2        A1
           R1           0.26191
           R2          -0.01002   0.50242
           A1           0.05184  -0.00226   0.18343
 ITU=  0  0  0  0
     Eigenvalues ---    0.15764   0.28722   0.50290
 Eigenvectors required to have negative eigenvalues:
                          A1        R1        R2
   1                   -0.89516   0.44569   0.00709
 RFO step:  Lambda0=1.591753884D-01 Lambda=-6.36147420D-06.
 Linear search not attempted -- option 19 set.
 Iteration  1 RMS(Cart)=  0.00492640 RMS(Int)=  0.00001101
 Iteration  2 RMS(Cart)=  0.00000839 RMS(Int)=  0.00000000
 Iteration  3 RMS(Cart)=  0.00000000 RMS(Int)=  0.00000000
 ClnCor:  largest displacement from symmetrization is 2.51D-15 for atom     3.
 Variable       Old X    -DE/DX   Delta X   Delta X   Delta X     New X
                                 (Linear)    (Quad)   (Total)
    R1        3.20023   0.00818   0.00000   0.00211   0.00211   3.20234
    R2        1.83635   0.00013   0.00000   0.00010   0.00010   1.83646
    A1        1.87446  -0.01339   0.00000   0.00631   0.00631   1.88077
         Item               Value     Threshold  Converged?
 Maximum Force            0.013393     0.000450     NO 
 RMS     Force            0.009060     0.000300     NO 
 Maximum Displacement     0.004559     0.001800     NO 
 RMS     Displacement     0.004924     0.001200     NO 
 Predicted change in Energy= 7.213387D-05
 GradGradGradGradGradGradGradGradGradGradGradGradGradGradGradGradGradGrad

                          Input orientation:                          
 ---------------------------------------------------------------------
 Center     Atomic      Atomic             Coordinates (Angstroms)
 Number     Number       Type             X           Y           Z
 ---------------------------------------------------------------------
      1          8           0        2.587083   -4.417452    3.102011
      2         17           0        3.914732   -3.392918    2.858359
      3          1           0        2.729743   -5.218874    2.571176
 ---------------------------------------------------------------------
                    Distance matrix (angstroms):
                    1          2          3
     1  O    0.000000
     2  Cl   1.694606   0.000000
     3  H    0.971810   2.195629   0.000000
 Stoichiometry    ClHO
 Framework group  CS[SG(ClHO)]
 Deg. of freedom     3
 Full point group                 CS      NOp   2
 Largest Abelian subgroup         CS      NOp   2
 Largest concise Abelian subgroup C1      NOp   1
                         Standard orientation:                         
 ---------------------------------------------------------------------
 Center     Atomic      Atomic             Coordinates (Angstroms)
 Number     Number       Type             X           Y           Z
 ---------------------------------------------------------------------
      1          8           0        0.035596    1.096610   -0.000000
      2         17           0        0.035596   -0.597996    0.000000
      3          1           0       -0.889899    1.393046    0.000000
 ---------------------------------------------------------------------
 Rotational constants (GHZ):         637.9085950          15.0074878          14.6625359
 Standard basis: SVP (5D, 7F)
 There are    29 symmetry adapted cartesian basis functions of A'  symmetry.
 There are    10 symmetry adapted cartesian basis functions of A"  symmetry.
 There are    27 symmetry adapted basis functions of A'  symmetry.
 There are    10 symmetry adapted basis functions of A"  symmetry.
    37 basis functions,    69 primitive gaussians,    39 cartesian basis functions
    13 alpha electrons       13 beta electrons
       nuclear repulsion energy        50.9223952637 Hartrees.
 NAtoms=    3 NActive=    3 NUniq=    3 SFac= 1.00D+00 NAtFMM=   60 NAOKFM=F Big=F
 Integral buffers will be    131072 words long.
 Raffenetti 2 integral format.
 Two-electron integral symmetry is turned on.
 Nuclear repulsion after empirical dispersion term =       50.9207829928 Hartrees.
 One-electron integrals computed using PRISM.
 NBasis=    37 RedAO= T EigKep=  3.44D-02  NBF=    27    10
 NBsUse=    37 1.00D-06 EigRej= -1.00D+00 NBFU=    27    10
 Initial guess from the checkpoint file:  "/tmp/Gau-10756.chk"
 B after Tr=    -0.000000    0.000000   -0.000000
         Rot=    1.000000   -0.000000    0.000000    0.000228 Ang=   0.03 deg.
 Initial guess orbital symmetries:
       Occupied  (A') (A') (A') (A') (A') (A") (A') (A') (A') (A')
                 (A") (A') (A")
       Virtual   (A') (A') (A') (A') (A') (A") (A') (A') (A") (A')
                 (A") (A') (A") (A') (A') (A') (A") (A') (A') (A")
                 (A') (A") (A') (A')
 Keep R1 ints in memory in symmetry-blocked form, NReq=7153137.
 Requested convergence on RMS density matrix=1.00D-08 within 128 cycles.
 Requested convergence on MAX density matrix=1.00D-06.
 Requested convergence on             energy=1.00D-06.
 No special actions if energy rises.
 SCF Done:  E(RB3LYP) =  -535.759274940     A.U. after    8 cycles
            NFock=  8  Conv=0.30D-08     -V/T= 2.0025
 Calling FoFJK, ICntrl=      2127 FMM=F ISym2X=1 I1Cent= 0 IOpClX= 0 NMat=1 NMatS=1 NMatT=0.
 ***** Axes restored to original set *****
 -------------------------------------------------------------------
 Center     Atomic                   Forces (Hartrees/Bohr)
 Number     Number              X              Y              Z
 -------------------------------------------------------------------
      1        8          -0.014526126   -0.004202126    0.006545536
      2       17           0.007574401    0.001342283   -0.003883017
      3        1           0.006951725    0.002859844   -0.002662519
 -------------------------------------------------------------------
 Cartesian Forces:  Max     0.014526126 RMS     0.006744179

 GradGradGradGradGradGradGradGradGradGradGradGradGradGradGradGradGradGrad
 Berny optimization.
 FormGI is forming the generalized inverse of G from B-inverse, IUseBI=4.
 Internal  Forces:  Max     0.014642680 RMS     0.009447624
 Search for a saddle point.
 Step number   5 out of a maximum of  100
 All quantities printed in internal units (Hartrees-Bohrs-Radians)
 Swapping is turned off.
 Update second derivatives using D2CorX and points    2    3    4    5
 The second derivative matrix:
                          R1        R2        A1
           R1           0.26226
           R2          -0.01003   0.50242
           A1           0.05088  -0.00226   0.18108
 ITU=  0  0  0  0
     Eigenvalues ---    0.15657   0.28629   0.50290
 Eigenvectors required to have negative eigenvalues:
                          A1        R1        R2
   1                   -0.90078   0.43423   0.00671
 RFO step:  Lambda0=1.582623124D-01 Lambda=-1.71074947D-07.
 Linear search not attempted -- option 19 set.
 Iteration  1 RMS(Cart)=  0.00080967 RMS(Int)=  0.00000029
 Iteration  2 RMS(Cart)=  0.00000022 RMS(Int)=  0.00000000
 ClnCor:  largest displacement from symmetrization is 2.18D-15 for atom     3.
 Variable       Old X    -DE/DX   Delta X   Delta X   Delta X     New X
                                 (Linear)    (Quad)   (Total)
    R1        3.20234   0.00730   0.00000   0.00036   0.00036   3.20270
    R2        1.83646   0.00012   0.00000   0.00002   0.00002   1.83648
    A1        1.88077  -0.01464   0.00000   0.00103   0.00103   1.88180
         Item               Value     Threshold  Converged?
 Maximum Force            0.014643     0.000450     NO 
 RMS     Force            0.009448     0.000300     NO 
 Maximum Displacement     0.000753     0.001800     YES
 RMS     Displacement     0.000810     0.001200     YES
 Predicted change in Energy= 1.260906D-05
 GradGradGradGradGradGradGradGradGradGradGradGradGradGradGradGradGradGrad

                          Input orientation:                          
 ---------------------------------------------------------------------
 Center     Atomic      Atomic             Coordinates (Angstroms)
 Number     Number       Type             X           Y           Z
 ---------------------------------------------------------------------
      1          8           0        2.587307   -4.417515    3.101839
      2         17           0        3.914897   -3.392520    2.858479
      3          1           0        2.729354   -5.219209    2.571228
 ---------------------------------------------------------------------
                    Distance matrix (angstroms):
                    1          2          3
     1  O    0.000000
     2  Cl   1.694796   0.000000
     3  H    0.971823   2.196547   0.000000
 Stoichiometry    ClHO
 Framework group  CS[SG(ClHO)]
 Deg. of freedom     3
 Full point group                 CS      NOp   2
 Largest Abelian subgroup         CS      NOp   2
 Largest concise Abelian subgroup C1      NOp   1
                         Standard orientation:                         
 ---------------------------------------------------------------------
 Center     Atomic      Atomic             Coordinates (Angstroms)
 Number     Number       Type             X           Y           Z
 ---------------------------------------------------------------------
      1          8           0        0.035585    1.096698   -0.000000
      2         17           0        0.035585   -0.598098    0.000000
      3          1           0       -0.889616    1.394092   -0.000000
 ---------------------------------------------------------------------
 Rotational constants (GHZ):         638.3661031          15.0029167          14.6584138
 Standard basis: SVP (5D, 7F)
 There are    29 symmetry adapted cartesian basis functions of A'  symmetry.
 There are    10 symmetry adapted cartesian basis functions of A"  symmetry.
 There are    27 symmetry adapted basis functions of A'  symmetry.
 There are    10 symmetry adapted basis functions of A"  symmetry.
    37 basis functions,    69 primitive gaussians,    39 cartesian basis functions
    13 alpha electrons       13 beta electrons
       nuclear repulsion energy        50.9158533922 Hartrees.
 NAtoms=    3 NActive=    3 NUniq=    3 SFac= 1.00D+00 NAtFMM=   60 NAOKFM=F Big=F
 Integral buffers will be    131072 words long.
 Raffenetti 2 integral format.
 Two-electron integral symmetry is turned on.
 Nuclear repulsion after empirical dispersion term =       50.9142411954 Hartrees.
 One-electron integrals computed using PRISM.
 NBasis=    37 RedAO= T EigKep=  3.44D-02  NBF=    27    10
 NBsUse=    37 1.00D-06 EigRej= -1.00D+00 NBFU=    27    10
 Initial guess from the checkpoint file:  "/tmp/Gau-10756.chk"
 B after Tr=    -0.000000   -0.000000    0.000000
         Rot=    1.000000    0.000000   -0.000000    0.000037 Ang=   0.00 deg.
 Initial guess orbital symmetries:
       Occupied  (A') (A') (A') (A') (A') (A") (A') (A') (A') (A')
                 (A") (A') (A")
       Virtual   (A') (A') (A') (A') (A') (A") (A') (A') (A") (A')
                 (A") (A') (A") (A') (A') (A') (A") (A') (A') (A")
                 (A') (A") (A') (A')
 Keep R1 ints in memory in symmetry-blocked form, NReq=7153137.
 Requested convergence on RMS density matrix=1.00D-08 within 128 cycles.
 Requested convergence on MAX density matrix=1.00D-06.
 Requested convergence on             energy=1.00D-06.
 No special actions if energy rises.
 SCF Done:  E(RB3LYP) =  -535.759262330     A.U. after    7 cycles
            NFock=  7  Conv=0.36D-08     -V/T= 2.0025
 Calling FoFJK, ICntrl=      2127 FMM=F ISym2X=1 I1Cent= 0 IOpClX= 0 NMat=1 NMatS=1 NMatT=0.
 ***** Axes restored to original set *****
 -------------------------------------------------------------------
 Center     Atomic                   Forces (Hartrees/Bohr)
 Number     Number              X              Y              Z
 -------------------------------------------------------------------
      1        8          -0.014534389   -0.004114750    0.006598959
      2       17           0.007486081    0.001213963   -0.003900117
      3        1           0.007048308    0.002900786   -0.002698841
 -------------------------------------------------------------------
 Cartesian Forces:  Max     0.014534389 RMS     0.006748077

 GradGradGradGradGradGradGradGradGradGradGradGradGradGradGradGradGradGrad
 Berny optimization.
 FormGI is forming the generalized inverse of G from B-inverse, IUseBI=4.
 Internal  Forces:  Max     0.014846902 RMS     0.009516413
 Search for a saddle point.
 Step number   6 out of a maximum of  100
 All quantities printed in internal units (Hartrees-Bohrs-Radians)
 Swapping is turned off.
 Second derivative matrix not updated -- analytic derivatives used.
 The second derivative matrix:
                          R1        R2        A1
           R1           0.26226
           R2          -0.01003   0.50242
           A1           0.05088  -0.00226   0.18108
 ITU=  0  0  0  0
     Eigenvalues ---    0.15657   0.28629   0.50290
 Eigenvectors required to have negative eigenvalues:
                          A1        R1        R2
   1                   -0.90078   0.43423   0.00671
 RFO step:  Lambda0=1.582870813D-01 Lambda= 0.00000000D+00.
 Linear search not attempted -- option 19 set.
 Iteration  1 RMS(Cart)=  0.00000465 RMS(Int)=  0.00000000
 Iteration  2 RMS(Cart)=  0.00000000 RMS(Int)=  0.00000000
 ClnCor:  largest displacement from symmetrization is 1.78D-15 for atom     3.
 Variable       Old X    -DE/DX   Delta X   Delta X   Delta X     New X
                                 (Linear)    (Quad)   (Total)
    R1        3.20270   0.00716   0.00000   0.00000   0.00000   3.20270
    R2        1.83648   0.00011   0.00000   0.00000   0.00000   1.83648
    A1        1.88180  -0.01485   0.00000   0.00001   0.00001   1.88181
         Item               Value     Threshold  Converged?
 Maximum Force            0.014847     0.000450     NO 
 RMS     Force            0.009516     0.000300     NO 
 Maximum Displacement     0.000004     0.001800     YES
 RMS     Displacement     0.000005     0.001200     YES
 Predicted change in Energy= 7.351762D-08
 GradGradGradGradGradGradGradGradGradGradGradGradGradGradGradGradGradGrad

                          Input orientation:                          
 ---------------------------------------------------------------------
 Center     Atomic      Atomic             Coordinates (Angstroms)
 Number     Number       Type             X           Y           Z
 ---------------------------------------------------------------------
      1          8           0        2.587308   -4.417515    3.101838
      2         17           0        3.914898   -3.392517    2.858480
      3          1           0        2.729352   -5.219211    2.571228
 ---------------------------------------------------------------------
                    Distance matrix (angstroms):
                    1          2          3
     1  O    0.000000
     2  Cl   1.694797   0.000000
     3  H    0.971823   2.196552   0.000000
 Stoichiometry    ClHO
 Framework group  CS[SG(ClHO)]
 Deg. of freedom     3
 Full point group                 CS      NOp   2
 Largest Abelian subgroup         CS      NOp   2
 Largest concise Abelian subgroup C1      NOp   1
                         Standard orientation:                         
 ---------------------------------------------------------------------
 Center     Atomic      Atomic             Coordinates (Angstroms)
 Number     Number       Type             X           Y           Z
 ---------------------------------------------------------------------
      1          8           0        0.035585    1.096698   -0.000000
      2         17           0        0.035585   -0.598099   -0.000000
      3          1           0       -0.889614    1.394098    0.000000
 ---------------------------------------------------------------------
 Rotational constants (GHZ):         638.3688368          15.0028904          14.6583901
 Standard basis: SVP (5D, 7F)
 There are    29 symmetry adapted cartesian basis functions of A'  symmetry.
 There are    10 symmetry adapted cartesian basis functions of A"  symmetry.
 There are    27 symmetry adapted basis functions of A'  symmetry.
 There are    10 symmetry adapted basis functions of A"  symmetry.
    37 basis functions,    69 primitive gaussians,    39 cartesian basis functions
    13 alpha electrons       13 beta electrons
       nuclear repulsion energy        50.9158160037 Hartrees.
 NAtoms=    3 NActive=    3 NUniq=    3 SFac= 1.00D+00 NAtFMM=   60 NAOKFM=F Big=F
 Integral buffers will be    131072 words long.
 Raffenetti 2 integral format.
 Two-electron integral symmetry is turned on.
 Nuclear repulsion after empirical dispersion term =       50.9142038074 Hartrees.
 One-electron integrals computed using PRISM.
 NBasis=    37 RedAO= T EigKep=  3.44D-02  NBF=    27    10
 NBsUse=    37 1.00D-06 EigRej= -1.00D+00 NBFU=    27    10
 Initial guess from the checkpoint file:  "/tmp/Gau-10756.chk"
 B after Tr=     0.000000    0.000000    0.000000
         Rot=    1.000000   -0.000000    0.000000    0.000000 Ang=   0.00 deg.
 Initial guess orbital symmetries:
       Occupied  (A') (A') (A') (A') (A') (A") (A') (A') (A') (A')
                 (A") (A') (A")
       Virtual   (A') (A') (A') (A') (A') (A") (A') (A') (A") (A')
                 (A") (A') (A") (A') (A') (A') (A") (A') (A') (A")
                 (A') (A") (A') (A')
 Keep R1 ints in memory in symmetry-blocked form, NReq=7153137.
 Requested convergence on RMS density matrix=1.00D-08 within 128 cycles.
 Requested convergence on MAX density matrix=1.00D-06.
 Requested convergence on             energy=1.00D-06.
 No special actions if energy rises.
 SCF Done:  E(RB3LYP) =  -535.759262257     A.U. after    4 cycles
            NFock=  4  Conv=0.16D-08     -V/T= 2.0025
 Calling FoFJK, ICntrl=      2127 FMM=F ISym2X=1 I1Cent= 0 IOpClX= 0 NMat=1 NMatS=1 NMatT=0.
 ***** Axes restored to original set *****
 -------------------------------------------------------------------
 Center     Atomic                   Forces (Hartrees/Bohr)
 Number     Number              X              Y              Z
 -------------------------------------------------------------------
      1        8          -0.014534449   -0.004114197    0.006599301
      2       17           0.007485573    0.001213224   -0.003900216
      3        1           0.007048876    0.002900972   -0.002699085
 -------------------------------------------------------------------
 Cartesian Forces:  Max     0.014534449 RMS     0.006748105

 GradGradGradGradGradGradGradGradGradGradGradGradGradGradGradGradGradGrad
 Berny optimization.
 FormGI is forming the generalized inverse of G from B-inverse, IUseBI=4.
 Internal  Forces:  Max     0.014848080 RMS     0.009516816
 Search for a saddle point.
 Step number   7 out of a maximum of  100
 All quantities printed in internal units (Hartrees-Bohrs-Radians)
 Swapping is turned off.
 Update second derivatives using D2CorX and points    4    7
 The second derivative matrix:
                          R1        R2        A1
           R1           0.26220
           R2          -0.01003   0.50242
           A1           0.05076  -0.00225   0.18099
 ITU=  0  0  0  0
     Eigenvalues ---    0.15658   0.28613   0.50290
 Eigenvectors required to have negative eigenvalues:
                          A1        R1        R2
   1                   -0.90104   0.43369   0.00670
 RFO step:  Lambda0=1.582935226D-01 Lambda= 0.00000000D+00.
 Linear search not attempted -- option 19 set.
 Iteration  1 RMS(Cart)=  0.00003613 RMS(Int)=  0.00000000
 Iteration  2 RMS(Cart)=  0.00000000 RMS(Int)=  0.00000000
 ClnCor:  largest displacement from symmetrization is 2.18D-15 for atom     3.
 Variable       Old X    -DE/DX   Delta X   Delta X   Delta X     New X
                                 (Linear)    (Quad)   (Total)
    R1        3.20270   0.00716   0.00000   0.00002   0.00002   3.20272
    R2        1.83648   0.00011   0.00000   0.00000   0.00000   1.83648
    A1        1.88181  -0.01485   0.00000   0.00005   0.00005   1.88186
         Item               Value     Threshold  Converged?
 Maximum Force            0.014848     0.000450     NO 
 RMS     Force            0.009517     0.000300     NO 
 Maximum Displacement     0.000034     0.001800     YES
 RMS     Displacement     0.000036     0.001200     YES
 Predicted change in Energy= 5.694119D-07
 GradGradGradGradGradGradGradGradGradGradGradGradGradGradGradGradGradGrad

                          Input orientation:                          
 ---------------------------------------------------------------------
 Center     Atomic      Atomic             Coordinates (Angstroms)
 Number     Number       Type             X           Y           Z
 ---------------------------------------------------------------------
      1          8           0        2.587318   -4.417518    3.101830
      2         17           0        3.914905   -3.392500    2.858485
      3          1           0        2.729334   -5.219226    2.571231
 ---------------------------------------------------------------------
                    Distance matrix (angstroms):
                    1          2          3
     1  O    0.000000
     2  Cl   1.694806   0.000000
     3  H    0.971823   2.196593   0.000000
 Stoichiometry    ClHO
 Framework group  CS[SG(ClHO)]
 Deg. of freedom     3
 Full point group                 CS      NOp   2
 Largest Abelian subgroup         CS      NOp   2
 Largest concise Abelian subgroup C1      NOp   1
                         Standard orientation:                         
 ---------------------------------------------------------------------
 Center     Atomic      Atomic             Coordinates (Angstroms)
 Number     Number       Type             X           Y           Z
 ---------------------------------------------------------------------
      1          8           0        0.035584    1.096702    0.000000
      2         17           0        0.035584   -0.598104   -0.000000
      3          1           0       -0.889601    1.394145    0.000000
 ---------------------------------------------------------------------
 Rotational constants (GHZ):         638.3896011          15.0026858          14.6582058
 Standard basis: SVP (5D, 7F)
 There are    29 symmetry adapted cartesian basis functions of A'  symmetry.
 There are    10 symmetry adapted cartesian basis functions of A"  symmetry.
 There are    27 symmetry adapted basis functions of A'  symmetry.
 There are    10 symmetry adapted basis functions of A"  symmetry.
    37 basis functions,    69 primitive gaussians,    39 cartesian basis functions
    13 alpha electrons       13 beta electrons
       nuclear repulsion energy        50.9155243613 Hartrees.
 NAtoms=    3 NActive=    3 NUniq=    3 SFac= 1.00D+00 NAtFMM=   60 NAOKFM=F Big=F
 Integral buffers will be    131072 words long.
 Raffenetti 2 integral format.
 Two-electron integral symmetry is turned on.
 Nuclear repulsion after empirical dispersion term =       50.9139121683 Hartrees.
 One-electron integrals computed using PRISM.
 NBasis=    37 RedAO= T EigKep=  3.44D-02  NBF=    27    10
 NBsUse=    37 1.00D-06 EigRej= -1.00D+00 NBFU=    27    10
 Initial guess from the checkpoint file:  "/tmp/Gau-10756.chk"
 B after Tr=     0.000000    0.000000   -0.000000
         Rot=    1.000000    0.000000   -0.000000    0.000002 Ang=   0.00 deg.
 Initial guess orbital symmetries:
       Occupied  (A') (A') (A') (A') (A') (A") (A') (A') (A') (A')
                 (A") (A') (A")
       Virtual   (A') (A') (A') (A') (A') (A") (A') (A') (A") (A')
                 (A") (A') (A") (A') (A') (A') (A") (A') (A') (A")
                 (A') (A") (A') (A')
 Keep R1 ints in memory in symmetry-blocked form, NReq=7153137.
 Requested convergence on RMS density matrix=1.00D-08 within 128 cycles.
 Requested convergence on MAX density matrix=1.00D-06.
 Requested convergence on             energy=1.00D-06.
 No special actions if energy rises.
 SCF Done:  E(RB3LYP) =  -535.759261687     A.U. after    5 cycles
            NFock=  5  Conv=0.28D-08     -V/T= 2.0025
 Calling FoFJK, ICntrl=      2127 FMM=F ISym2X=1 I1Cent= 0 IOpClX= 0 NMat=1 NMatS=1 NMatT=0.
 ***** Axes restored to original set *****
 -------------------------------------------------------------------
 Center     Atomic                   Forces (Hartrees/Bohr)
 Number     Number              X              Y              Z
 -------------------------------------------------------------------
      1        8          -0.014534842   -0.004110115    0.006601801
      2       17           0.007481620    0.001207484   -0.003900980
      3        1           0.007053222    0.002902631   -0.002700821
 -------------------------------------------------------------------
 Cartesian Forces:  Max     0.014534842 RMS     0.006748303

 GradGradGradGradGradGradGradGradGradGradGradGradGradGradGradGradGradGrad
 Berny optimization.
 FormGI is forming the generalized inverse of G from B-inverse, IUseBI=4.
 Internal  Forces:  Max     0.014857204 RMS     0.009519927
 Search for a saddle point.
 Step number   8 out of a maximum of  100
 All quantities printed in internal units (Hartrees-Bohrs-Radians)
 Swapping is turned off.
 Update second derivatives using D2CorX and points    8
 The second derivative matrix:
                          R1        R2        A1
           R1           0.26220
           R2          -0.01003   0.50242
           A1           0.05076  -0.00225   0.18099
 ITU=  0  0  0  0
     Eigenvalues ---    0.15658   0.28613   0.50290
 Eigenvectors required to have negative eigenvalues:
                          A1        R1        R2
   1                   -0.90104   0.43369   0.00670
 RFO step:  Lambda0=1.582946335D-01 Lambda= 0.00000000D+00.
 Linear search not attempted -- option 19 set.
 Iteration  1 RMS(Cart)=  0.00000021 RMS(Int)=  0.00000000
 ClnCor:  largest displacement from symmetrization is 3.66D-15 for atom     1.
 Variable       Old X    -DE/DX   Delta X   Delta X   Delta X     New X
                                 (Linear)    (Quad)   (Total)
    R1        3.20272   0.00715   0.00000   0.00000   0.00000   3.20272
    R2        1.83648   0.00011   0.00000   0.00000   0.00000   1.83648
    A1        1.88186  -0.01486   0.00000   0.00000   0.00000   1.88186
         Item               Value     Threshold  Converged?
 Maximum Force            0.014857     0.000450     NO 
 RMS     Force            0.009520     0.000300     NO 
 Maximum Displacement     0.000000     0.001800     YES
 RMS     Displacement     0.000000     0.001200     YES
 Predicted change in Energy= 3.241911D-09
 GradGradGradGradGradGradGradGradGradGradGradGradGradGradGradGradGradGrad

                          Input orientation:                          
 ---------------------------------------------------------------------
 Center     Atomic      Atomic             Coordinates (Angstroms)
 Number     Number       Type             X           Y           Z
 ---------------------------------------------------------------------
      1          8           0        2.587318   -4.417518    3.101830
      2         17           0        3.914905   -3.392500    2.858485
      3          1           0        2.729334   -5.219226    2.571231
 ---------------------------------------------------------------------
                    Distance matrix (angstroms):
                    1          2          3
     1  O    0.000000
     2  Cl   1.694806   0.000000
     3  H    0.971823   2.196593   0.000000
 Stoichiometry    ClHO
 Framework group  CS[SG(ClHO)]
 Deg. of freedom     3
 Full point group                 CS      NOp   2
 Largest Abelian subgroup         CS      NOp   2
 Largest concise Abelian subgroup C1      NOp   1
                         Standard orientation:                         
 ---------------------------------------------------------------------
 Center     Atomic      Atomic             Coordinates (Angstroms)
 Number     Number       Type             X           Y           Z
 ---------------------------------------------------------------------
      1          8           0        0.035584    1.096702    0.000000
      2         17           0        0.035584   -0.598104   -0.000000
      3          1           0       -0.889601    1.394145    0.000000
 ---------------------------------------------------------------------
 Rotational constants (GHZ):         638.3897203          15.0026847          14.6582048
 Standard basis: SVP (5D, 7F)
 There are    29 symmetry adapted cartesian basis functions of A'  symmetry.
 There are    10 symmetry adapted cartesian basis functions of A"  symmetry.
 There are    27 symmetry adapted basis functions of A'  symmetry.
 There are    10 symmetry adapted basis functions of A"  symmetry.
    37 basis functions,    69 primitive gaussians,    39 cartesian basis functions
    13 alpha electrons       13 beta electrons
       nuclear repulsion energy        50.9155227059 Hartrees.
 NAtoms=    3 NActive=    3 NUniq=    3 SFac= 1.00D+00 NAtFMM=   60 NAOKFM=F Big=F
 Integral buffers will be    131072 words long.
 Raffenetti 2 integral format.
 Two-electron integral symmetry is turned on.
 Nuclear repulsion after empirical dispersion term =       50.9139105128 Hartrees.
 One-electron integrals computed using PRISM.
 NBasis=    37 RedAO= T EigKep=  3.44D-02  NBF=    27    10
 NBsUse=    37 1.00D-06 EigRej= -1.00D+00 NBFU=    27    10
 Initial guess from the checkpoint file:  "/tmp/Gau-10756.chk"
 B after Tr=     0.000000    0.000000   -0.000000
         Rot=    1.000000    0.000000    0.000000    0.000000 Ang=   0.00 deg.
 Initial guess orbital symmetries:
       Occupied  (A') (A') (A') (A') (A') (A") (A') (A') (A') (A')
                 (A") (A') (A")
       Virtual   (A') (A') (A') (A') (A') (A") (A') (A') (A") (A')
                 (A") (A') (A") (A') (A') (A') (A") (A') (A') (A")
                 (A') (A") (A') (A')
 Keep R1 ints in memory in symmetry-blocked form, NReq=7153137.
 Requested convergence on RMS density matrix=1.00D-08 within 128 cycles.
 Requested convergence on MAX density matrix=1.00D-06.
 Requested convergence on             energy=1.00D-06.
 No special actions if energy rises.
 SCF Done:  E(RB3LYP) =  -535.759261684     A.U. after    1 cycles
            NFock=  1  Conv=0.34D-08     -V/T= 2.0025
 Calling FoFJK, ICntrl=      2127 FMM=F ISym2X=1 I1Cent= 0 IOpClX= 0 NMat=1 NMatS=1 NMatT=0.
 ***** Axes restored to original set *****
 -------------------------------------------------------------------
 Center     Atomic                   Forces (Hartrees/Bohr)
 Number     Number              X              Y              Z
 -------------------------------------------------------------------
      1        8          -0.014534847   -0.004110092    0.006601817
      2       17           0.007481598    0.001207453   -0.003900984
      3        1           0.007053249    0.002902640   -0.002700833
 -------------------------------------------------------------------
 Cartesian Forces:  Max     0.014534847 RMS     0.006748306

 GradGradGradGradGradGradGradGradGradGradGradGradGradGradGradGradGradGrad
 Berny optimization.
 FormGI is forming the generalized inverse of G from B-inverse, IUseBI=4.
 Internal  Forces:  Max     0.014857257 RMS     0.009519946
 Search for a saddle point.
 Step number   9 out of a maximum of  100
 All quantities printed in internal units (Hartrees-Bohrs-Radians)
 Swapping is turned off.
 Update second derivatives using D2CorX and points    9
 The second derivative matrix:
                          R1        R2        A1
           R1           0.26220
           R2          -0.01003   0.50242
           A1           0.05076  -0.00225   0.18099
 ITU=  0  0  0  0
     Eigenvalues ---    0.15658   0.28613   0.50290
 Eigenvectors required to have negative eigenvalues:
                          A1        R1        R2
   1                   -0.90104   0.43369   0.00670
 RFO step:  Lambda0=1.582946404D-01 Lambda= 0.00000000D+00.
 Linear search not attempted -- option 19 set.
 Iteration  1 RMS(Cart)=  0.00000001 RMS(Int)=  0.00000000
 ClnCor:  largest displacement from symmetrization is 3.97D-15 for atom     3.
 Variable       Old X    -DE/DX   Delta X   Delta X   Delta X     New X
                                 (Linear)    (Quad)   (Total)
    R1        3.20272   0.00715   0.00000   0.00000   0.00000   3.20272
    R2        1.83648   0.00011   0.00000   0.00000   0.00000   1.83648
    A1        1.88186  -0.01486   0.00000   0.00000   0.00000   1.88186
         Item               Value     Threshold  Converged?
 Maximum Force            0.014857     0.000450     NO 
 RMS     Force            0.009520     0.000300     NO 
 Maximum Displacement     0.000000     0.001800     YES
 RMS     Displacement     0.000000     0.001200     YES
 Predicted change in Energy= 8.192470D-11
 GradGradGradGradGradGradGradGradGradGradGradGradGradGradGradGradGradGrad

                          Input orientation:                          
 ---------------------------------------------------------------------
 Center     Atomic      Atomic             Coordinates (Angstroms)
 Number     Number       Type             X           Y           Z
 ---------------------------------------------------------------------
      1          8           0        2.587318   -4.417518    3.101830
      2         17           0        3.914905   -3.392500    2.858485
      3          1           0        2.729334   -5.219226    2.571231
 ---------------------------------------------------------------------
                    Distance matrix (angstroms):
                    1          2          3
     1  O    0.000000
     2  Cl   1.694806   0.000000
     3  H    0.971823   2.196593   0.000000
 Stoichiometry    ClHO
 Framework group  CS[SG(ClHO)]
 Deg. of freedom     3
 Full point group                 CS      NOp   2
 Largest Abelian subgroup         CS      NOp   2
 Largest concise Abelian subgroup C1      NOp   1
                         Standard orientation:                         
 ---------------------------------------------------------------------
 Center     Atomic      Atomic             Coordinates (Angstroms)
 Number     Number       Type             X           Y           Z
 ---------------------------------------------------------------------
      1          8           0        0.035584    1.096702   -0.000000
      2         17           0        0.035584   -0.598104    0.000000
      3          1           0       -0.889601    1.394145   -0.000000
 ---------------------------------------------------------------------
 Rotational constants (GHZ):         638.3897222          15.0026846          14.6582048
 Standard basis: SVP (5D, 7F)
 There are    29 symmetry adapted cartesian basis functions of A'  symmetry.
 There are    10 symmetry adapted cartesian basis functions of A"  symmetry.
 There are    27 symmetry adapted basis functions of A'  symmetry.
 There are    10 symmetry adapted basis functions of A"  symmetry.
    37 basis functions,    69 primitive gaussians,    39 cartesian basis functions
    13 alpha electrons       13 beta electrons
       nuclear repulsion energy        50.9155226632 Hartrees.
 NAtoms=    3 NActive=    3 NUniq=    3 SFac= 1.00D+00 NAtFMM=   60 NAOKFM=F Big=F
 Integral buffers will be    131072 words long.
 Raffenetti 2 integral format.
 Two-electron integral symmetry is turned on.
 Nuclear repulsion after empirical dispersion term =       50.9139104702 Hartrees.
 One-electron integrals computed using PRISM.
 NBasis=    37 RedAO= T EigKep=  3.44D-02  NBF=    27    10
 NBsUse=    37 1.00D-06 EigRej= -1.00D+00 NBFU=    27    10
 Initial guess from the checkpoint file:  "/tmp/Gau-10756.chk"
 B after Tr=    -0.000000   -0.000000    0.000000
         Rot=    1.000000   -0.000000    0.000000    0.000000 Ang=   0.00 deg.
 Initial guess orbital symmetries:
       Occupied  (A') (A') (A') (A') (A') (A") (A') (A') (A') (A')
                 (A") (A') (A")
       Virtual   (A') (A') (A') (A') (A') (A") (A') (A') (A") (A')
                 (A") (A') (A") (A') (A') (A') (A") (A') (A') (A")
                 (A') (A") (A') (A')
 Keep R1 ints in memory in symmetry-blocked form, NReq=7153137.
 Requested convergence on RMS density matrix=1.00D-08 within 128 cycles.
 Requested convergence on MAX density matrix=1.00D-06.
 Requested convergence on             energy=1.00D-06.
 No special actions if energy rises.
 SCF Done:  E(RB3LYP) =  -535.759261684     A.U. after    1 cycles
            NFock=  1  Conv=0.85D-09     -V/T= 2.0025
 Calling FoFJK, ICntrl=      2127 FMM=F ISym2X=1 I1Cent= 0 IOpClX= 0 NMat=1 NMatS=1 NMatT=0.
 ***** Axes restored to original set *****
 -------------------------------------------------------------------
 Center     Atomic                   Forces (Hartrees/Bohr)
 Number     Number              X              Y              Z
 -------------------------------------------------------------------
      1        8          -0.014534844   -0.004110086    0.006601818
      2       17           0.007481596    0.001207451   -0.003900984
      3        1           0.007053248    0.002902635   -0.002700835
 -------------------------------------------------------------------
 Cartesian Forces:  Max     0.014534844 RMS     0.006748304

 GradGradGradGradGradGradGradGradGradGradGradGradGradGradGradGradGradGrad
 Berny optimization.
 Internal  Forces:  Max     0.014857255 RMS     0.009519944
 Search for a saddle point.
 Step number  10 out of a maximum of  100
 All quantities printed in internal units (Hartrees-Bohrs-Radians)
 Swapping is turned off.
 Update second derivatives using D2CorX and points   10
 The second derivative matrix:
                          R1        R2        A1
           R1           0.26220
           R2          -0.01003   0.50242
           A1           0.05076  -0.00225   0.18099
 ITU=  0  0  0  0
     Eigenvalues ---    0.15658   0.28613   0.50290
 Eigenvectors required to have negative eigenvalues:
                          A1        R1        R2
   1                   -0.90104   0.43369   0.00670
 RFO step:  Lambda0=1.582946397D-01 Lambda= 0.00000000D+00.
 Linear search not attempted -- option 19 set.
 Iteration  1 RMS(Cart)=  0.00000001 RMS(Int)=  0.00000000
 ClnCor:  largest displacement from symmetrization is 2.51D-15 for atom     1.
 Variable       Old X    -DE/DX   Delta X   Delta X   Delta X     New X
                                 (Linear)    (Quad)   (Total)
    R1        3.20272   0.00715   0.00000  -0.00000  -0.00000   3.20272
    R2        1.83648   0.00011   0.00000   0.00000   0.00000   1.83648
    A1        1.88186  -0.01486   0.00000   0.00000   0.00000   1.88186
         Item               Value     Threshold  Converged?
 Maximum Force            0.014857     0.000450     NO 
 RMS     Force            0.009520     0.000300     NO 
 Maximum Displacement     0.000000     0.001800     YES
 RMS     Displacement     0.000000     0.001200     YES
 Predicted change in Energy= 2.126750D-10
 GradGradGradGradGradGradGradGradGradGradGradGradGradGradGradGradGradGrad

                          Input orientation:                          
 ---------------------------------------------------------------------
 Center     Atomic      Atomic             Coordinates (Angstroms)
 Number     Number       Type             X           Y           Z
 ---------------------------------------------------------------------
      1          8           0        2.587318   -4.417518    3.101830
      2         17           0        3.914905   -3.392500    2.858485
      3          1           0        2.729334   -5.219226    2.571231
 ---------------------------------------------------------------------
                    Distance matrix (angstroms):
                    1          2          3
     1  O    0.000000
     2  Cl   1.694806   0.000000
     3  H    0.971823   2.196593   0.000000
 Stoichiometry    ClHO
 Framework group  CS[SG(ClHO)]
 Deg. of freedom     3
 Full point group                 CS      NOp   2
 Largest Abelian subgroup         CS      NOp   2
 Largest concise Abelian subgroup C1      NOp   1
                         Standard orientation:                         
 ---------------------------------------------------------------------
 Center     Atomic      Atomic             Coordinates (Angstroms)
 Number     Number       Type             X           Y           Z
 ---------------------------------------------------------------------
      1          8           0        0.035584    1.096702   -0.000000
      2         17           0        0.035584   -0.598104    0.000000
      3          1           0       -0.889601    1.394145   -0.000000
 ---------------------------------------------------------------------
 Rotational constants (GHZ):         638.3897187          15.0026847          14.6582048
 Standard basis: SVP (5D, 7F)
 There are    29 symmetry adapted cartesian basis functions of A'  symmetry.
 There are    10 symmetry adapted cartesian basis functions of A"  symmetry.
 There are    27 symmetry adapted basis functions of A'  symmetry.
 There are    10 symmetry adapted basis functions of A"  symmetry.
    37 basis functions,    69 primitive gaussians,    39 cartesian basis functions
    13 alpha electrons       13 beta electrons
       nuclear repulsion energy        50.9155227005 Hartrees.
 NAtoms=    3 NActive=    3 NUniq=    3 SFac= 1.00D+00 NAtFMM=   60 NAOKFM=F Big=F
 Integral buffers will be    131072 words long.
 Raffenetti 2 integral format.
 Two-electron integral symmetry is turned on.
 Nuclear repulsion after empirical dispersion term =       50.9139105075 Hartrees.
 One-electron integrals computed using PRISM.
 NBasis=    37 RedAO= T EigKep=  3.44D-02  NBF=    27    10
 NBsUse=    37 1.00D-06 EigRej= -1.00D+00 NBFU=    27    10
 Initial guess from the checkpoint file:  "/tmp/Gau-10756.chk"
 B after Tr=     0.000000   -0.000000   -0.000000
         Rot=    1.000000    0.000000    0.000000    0.000000 Ang=   0.00 deg.
 Initial guess orbital symmetries:
       Occupied  (A') (A') (A') (A') (A') (A") (A') (A') (A') (A')
                 (A") (A') (A")
       Virtual   (A') (A') (A') (A') (A') (A") (A') (A') (A") (A')
                 (A") (A') (A") (A') (A') (A') (A") (A') (A') (A")
                 (A') (A") (A') (A')
 Keep R1 ints in memory in symmetry-blocked form, NReq=7153137.
 Requested convergence on RMS density matrix=1.00D-08 within 128 cycles.
 Requested convergence on MAX density matrix=1.00D-06.
 Requested convergence on             energy=1.00D-06.
 No special actions if energy rises.
 SCF Done:  E(RB3LYP) =  -535.759261684     A.U. after    1 cycles
            NFock=  1  Conv=0.12D-08     -V/T= 2.0025
 Calling FoFJK, ICntrl=      2127 FMM=F ISym2X=1 I1Cent= 0 IOpClX= 0 NMat=1 NMatS=1 NMatT=0.
 ***** Axes restored to original set *****
 -------------------------------------------------------------------
 Center     Atomic                   Forces (Hartrees/Bohr)
 Number     Number              X              Y              Z
 -------------------------------------------------------------------
[...]
           A1           0.05076  -0.00225   0.18099
 ITU=  0  0  0  0
     Eigenvalues ---    0.15658   0.28613   0.50290
 Eigenvectors required to have negative eigenvalues:
                          A1        R1        R2
   1                   -0.90104   0.43369   0.00670
 RFO step:  Lambda0=1.582947512D-01 Lambda= 0.00000000D+00.
 Linear search not attempted -- option 19 set.
 Iteration  1 RMS(Cart)=  0.00000006 RMS(Int)=  0.00000000
 ClnCor:  largest displacement from symmetrization is 2.66D-15 for atom     1.
 Variable       Old X    -DE/DX   Delta X   Delta X   Delta X     New X
                                 (Linear)    (Quad)   (Total)
    R1        3.20272   0.00715   0.00000  -0.00000  -0.00000   3.20272
    R2        1.83648   0.00011   0.00000   0.00000   0.00000   1.83648
    A1        1.88186  -0.01486   0.00000   0.00000   0.00000   1.88186
         Item               Value     Threshold  Converged?
 Maximum Force            0.014858     0.000450     NO 
 RMS     Force            0.009520     0.000300     NO 
 Maximum Displacement     0.000000     0.001800     YES
 RMS     Displacement     0.000000     0.001200     YES
 Predicted change in Energy= 1.353720D-09
 GradGradGradGradGradGradGradGradGradGradGradGradGradGradGradGradGradGrad

                          Input orientation:                          
 ---------------------------------------------------------------------
 Center     Atomic      Atomic             Coordinates (Angstroms)
 Number     Number       Type             X           Y           Z
 ---------------------------------------------------------------------
      1          8           0        2.587319   -4.417518    3.101830
      2         17           0        3.914905   -3.392499    2.858486
      3          1           0        2.729333   -5.219226    2.571231
 ---------------------------------------------------------------------
                    Distance matrix (angstroms):
                    1          2          3
     1  O    0.000000
     2  Cl   1.694805   0.000000
     3  H    0.971823   2.196595   0.000000
 Stoichiometry    ClHO
 Framework group  CS[SG(ClHO)]
 Deg. of freedom     3
 Full point group                 CS      NOp   2
 Largest Abelian subgroup         CS      NOp   2
 Largest concise Abelian subgroup C1      NOp   1
                         Standard orientation:                         
 ---------------------------------------------------------------------
 Center     Atomic      Atomic             Coordinates (Angstroms)
 Number     Number       Type             X           Y           Z
 ---------------------------------------------------------------------
      1          8           0        0.035584    1.096701   -0.000000
      2         17           0        0.035584   -0.598103    0.000000
      3          1           0       -0.889600    1.394147    0.000000
 ---------------------------------------------------------------------
 Rotational constants (GHZ):         638.3912208          15.0026953          14.6582157
 Standard basis: SVP (5D, 7F)
 There are    29 symmetry adapted cartesian basis functions of A'  symmetry.
 There are    10 symmetry adapted cartesian basis functions of A"  symmetry.
 There are    27 symmetry adapted basis functions of A'  symmetry.
 There are    10 symmetry adapted basis functions of A"  symmetry.
    37 basis functions,    69 primitive gaussians,    39 cartesian basis functions
    13 alpha electrons       13 beta electrons
       nuclear repulsion energy        50.9155406201 Hartrees.
 NAtoms=    3 NActive=    3 NUniq=    3 SFac= 1.00D+00 NAtFMM=   60 NAOKFM=F Big=F
 Integral buffers will be    131072 words long.
 Raffenetti 2 integral format.
 Two-electron integral symmetry is turned on.
 Nuclear repulsion after empirical dispersion term =       50.9139284271 Hartrees.
 One-electron integrals computed using PRISM.
 NBasis=    37 RedAO= T EigKep=  3.44D-02  NBF=    27    10
 NBsUse=    37 1.00D-06 EigRej= -1.00D+00 NBFU=    27    10
 Initial guess from the checkpoint file:  "/tmp/Gau-10756.chk"
 B after Tr=    -0.000000    0.000000    0.000000
         Rot=    1.000000    0.000000   -0.000000    0.000000 Ang=   0.00 deg.
 Initial guess orbital symmetries:
       Occupied  (A') (A') (A') (A') (A') (A") (A') (A') (A') (A')
                 (A") (A') (A")
       Virtual   (A') (A') (A') (A') (A') (A") (A') (A') (A") (A')
                 (A") (A') (A") (A') (A') (A') (A") (A') (A') (A")
                 (A') (A") (A') (A')
 Keep R1 ints in memory in symmetry-blocked form, NReq=7153137.
 Requested convergence on RMS density matrix=1.00D-08 within 128 cycles.
 Requested convergence on MAX density matrix=1.00D-06.
 Requested convergence on             energy=1.00D-06.
 No special actions if energy rises.
 SCF Done:  E(RB3LYP) =  -535.759261624     A.U. after    2 cycles
            NFock=  2  Conv=0.72D-08     -V/T= 2.0025
 Calling FoFJK, ICntrl=      2127 FMM=F ISym2X=1 I1Cent= 0 IOpClX= 0 NMat=1 NMatS=1 NMatT=0.
 ***** Axes restored to original set *****
 -------------------------------------------------------------------
 Center     Atomic                   Forces (Hartrees/Bohr)
 Number     Number              X              Y              Z
 -------------------------------------------------------------------
      1        8          -0.014535346   -0.004110247    0.006602036
      2       17           0.007481858    0.001207500   -0.003901117
      3        1           0.007053488    0.002902748   -0.002700919
 -------------------------------------------------------------------
 Cartesian Forces:  Max     0.014535346 RMS     0.006748538

 GradGradGradGradGradGradGradGradGradGradGradGradGradGradGradGradGradGrad
 Berny optimization.
 Internal  Forces:  Max     0.014857766 RMS     0.009520272
 Search for a saddle point.
 Step number  99 out of a maximum of  100
 All quantities printed in internal units (Hartrees-Bohrs-Radians)
 Swapping is turned off.
 Update second derivatives using D2CorX and points   99
 The second derivative matrix:
                          R1        R2        A1
           R1           0.26220
           R2          -0.01003   0.50242
           A1           0.05076  -0.00225   0.18099
 ITU=  0  0  0  0
     Eigenvalues ---    0.15658   0.28613   0.50290
 Eigenvectors required to have negative eigenvalues:
                          A1        R1        R2
   1                   -0.90104   0.43369   0.00670
 RFO step:  Lambda0=1.582947569D-01 Lambda= 0.00000000D+00.
 Linear search not attempted -- option 19 set.
 Iteration  1 RMS(Cart)=  0.00000004 RMS(Int)=  0.00000000
 ClnCor:  largest displacement from symmetrization is 1.26D-15 for atom     1.
 Variable       Old X    -DE/DX   Delta X   Delta X   Delta X     New X
                                 (Linear)    (Quad)   (Total)
    R1        3.20272   0.00715   0.00000  -0.00000  -0.00000   3.20272
    R2        1.83648   0.00011   0.00000  -0.00000  -0.00000   1.83648
    A1        1.88186  -0.01486   0.00000   0.00000   0.00000   1.88186
         Item               Value     Threshold  Converged?
 Maximum Force            0.014858     0.000450     NO 
 RMS     Force            0.009520     0.000300     NO 
 Maximum Displacement     0.000000     0.001800     YES
 RMS     Displacement     0.000000     0.001200     YES
 Predicted change in Energy= 9.581991D-10
 GradGradGradGradGradGradGradGradGradGradGradGradGradGradGradGradGradGrad

                          Input orientation:                          
 ---------------------------------------------------------------------
 Center     Atomic      Atomic             Coordinates (Angstroms)
 Number     Number       Type             X           Y           Z
 ---------------------------------------------------------------------
      1          8           0        2.587319   -4.417518    3.101830
      2         17           0        3.914905   -3.392499    2.858486
      3          1           0        2.729333   -5.219226    2.571231
 ---------------------------------------------------------------------
                    Distance matrix (angstroms):
                    1          2          3
     1  O    0.000000
     2  Cl   1.694805   0.000000
     3  H    0.971823   2.196595   0.000000
 Stoichiometry    ClHO
 Framework group  CS[SG(ClHO)]
 Deg. of freedom     3
 Full point group                 CS      NOp   2
 Largest Abelian subgroup         CS      NOp   2
 Largest concise Abelian subgroup C1      NOp   1
                         Standard orientation:                         
 ---------------------------------------------------------------------
 Center     Atomic      Atomic             Coordinates (Angstroms)
 Number     Number       Type             X           Y           Z
 ---------------------------------------------------------------------
      1          8           0        0.035584    1.096701    0.000000
      2         17           0        0.035584   -0.598103   -0.000000
      3          1           0       -0.889600    1.394147    0.000000
 ---------------------------------------------------------------------
 Rotational constants (GHZ):         638.3912862          15.0026954          14.6582159
 Standard basis: SVP (5D, 7F)
 There are    29 symmetry adapted cartesian basis functions of A'  symmetry.
 There are    10 symmetry adapted cartesian basis functions of A"  symmetry.
 There are    27 symmetry adapted basis functions of A'  symmetry.
 There are    10 symmetry adapted basis functions of A"  symmetry.
    37 basis functions,    69 primitive gaussians,    39 cartesian basis functions
    13 alpha electrons       13 beta electrons
       nuclear repulsion energy        50.9155409695 Hartrees.
 NAtoms=    3 NActive=    3 NUniq=    3 SFac= 1.00D+00 NAtFMM=   60 NAOKFM=F Big=F
 Integral buffers will be    131072 words long.
 Raffenetti 2 integral format.
 Two-electron integral symmetry is turned on.
 Nuclear repulsion after empirical dispersion term =       50.9139287766 Hartrees.
 One-electron integrals computed using PRISM.
 NBasis=    37 RedAO= T EigKep=  3.44D-02  NBF=    27    10
 NBsUse=    37 1.00D-06 EigRej= -1.00D+00 NBFU=    27    10
 Initial guess from the checkpoint file:  "/tmp/Gau-10756.chk"
 B after Tr=     0.000000   -0.000000   -0.000000
         Rot=    1.000000    0.000000   -0.000000    0.000000 Ang=   0.00 deg.
 Initial guess orbital symmetries:
       Occupied  (A') (A') (A') (A') (A') (A") (A') (A') (A') (A')
                 (A") (A') (A")
       Virtual   (A') (A') (A') (A') (A') (A") (A') (A') (A") (A')
                 (A") (A') (A") (A') (A') (A') (A") (A') (A') (A")
                 (A') (A") (A') (A')
 Keep R1 ints in memory in symmetry-blocked form, NReq=7153137.
 Requested convergence on RMS density matrix=1.00D-08 within 128 cycles.
 Requested convergence on MAX density matrix=1.00D-06.
 Requested convergence on             energy=1.00D-06.
 No special actions if energy rises.
 SCF Done:  E(RB3LYP) =  -535.759261623     A.U. after    1 cycles
            NFock=  1  Conv=0.97D-09     -V/T= 2.0025
 Calling FoFJK, ICntrl=      2127 FMM=F ISym2X=1 I1Cent= 0 IOpClX= 0 NMat=1 NMatS=1 NMatT=0.
 ***** Axes restored to original set *****
 -------------------------------------------------------------------
 Center     Atomic                   Forces (Hartrees/Bohr)
 Number     Number              X              Y              Z
 -------------------------------------------------------------------
      1        8          -0.014535357   -0.004110220    0.006602058
      2       17           0.007481859    0.001207497   -0.003901118
      3        1           0.007053498    0.002902722   -0.002700939
 -------------------------------------------------------------------
 Cartesian Forces:  Max     0.014535357 RMS     0.006748542

 GradGradGradGradGradGradGradGradGradGradGradGradGradGradGradGradGradGrad
 Berny optimization.
 Internal  Forces:  Max     0.014857776 RMS     0.009520278
 Search for a saddle point.
 Step number 100 out of a maximum of  100
 All quantities printed in internal units (Hartrees-Bohrs-Radians)
 Swapping is turned off.
 Update second derivatives using D2CorX and points  100
 The second derivative matrix:
                          R1        R2        A1
           R1           0.26220
           R2          -0.01003   0.50242
           A1           0.05076  -0.00225   0.18099
 ITU=  0  0  0  0
     Eigenvalues ---    0.15658   0.28613   0.50290
 Eigenvectors required to have negative eigenvalues:
                          A1        R1        R2
   1                   -0.90104   0.43369   0.00670
 RFO step:  Lambda0=1.582947588D-01 Lambda= 0.00000000D+00.
 Linear search not attempted -- option 19 set.
 Iteration  1 RMS(Cart)=  0.00000001 RMS(Int)=  0.00000000
 ClnCor:  largest displacement from symmetrization is 2.66D-15 for atom     3.
 Variable       Old X    -DE/DX   Delta X   Delta X   Delta X     New X
                                 (Linear)    (Quad)   (Total)
    R1        3.20272   0.00715   0.00000  -0.00000  -0.00000   3.20272
    R2        1.83648   0.00011   0.00000   0.00000   0.00000   1.83648
    A1        1.88186  -0.01486   0.00000   0.00000   0.00000   1.88186
         Item               Value     Threshold  Converged?
 Maximum Force            0.014858     0.000450     NO 
 RMS     Force            0.009520     0.000300     NO 
 Maximum Displacement     0.000000     0.001800     YES
 RMS     Displacement     0.000000     0.001200     YES
 Predicted change in Energy= 1.544402D-10
 Optimization stopped.
    -- Number of steps exceeded,  NStep= 100
    -- Flag reset to prevent archiving.
                           ----------------------------
                           ! Non-Optimized Parameters !
                           ! (Angstroms and Degrees)  !
 --------------------------                            --------------------------
 ! Name  Definition              Value          Derivative Info.                !
 --------------------------------------------------------------------------------
 ! R1    R(1,2)                  1.6948         -DE/DX =    0.0072              !
 ! R2    R(1,3)                  0.9718         -DE/DX =    0.0001              !
 ! A1    A(2,1,3)              107.8226         -DE/DX =   -0.0149              !
 --------------------------------------------------------------------------------
 GradGradGradGradGradGradGradGradGradGradGradGradGradGradGradGradGradGrad

                          Input orientation:                          
 ---------------------------------------------------------------------
 Center     Atomic      Atomic             Coordinates (Angstroms)
 Number     Number       Type             X           Y           Z
 ---------------------------------------------------------------------
      1          8           0        2.587319   -4.417518    3.101830
      2         17           0        3.914905   -3.392499    2.858486
      3          1           0        2.729333   -5.219226    2.571231
 ---------------------------------------------------------------------
                    Distance matrix (angstroms):
                    1          2          3
     1  O    0.000000
     2  Cl   1.694805   0.000000
     3  H    0.971823   2.196595   0.000000
 Stoichiometry    ClHO
 Framework group  CS[SG(ClHO)]
 Deg. of freedom     3
 Full point group                 CS      NOp   2
 Largest Abelian subgroup         CS      NOp   2
 Largest concise Abelian subgroup C1      NOp   1
                         Standard orientation:                         
 ---------------------------------------------------------------------
 Center     Atomic      Atomic             Coordinates (Angstroms)
 Number     Number       Type             X           Y           Z
 ---------------------------------------------------------------------
      1          8           0        0.035584    1.096701   -0.000000
      2         17           0        0.035584   -0.598103    0.000000
      3          1           0       -0.889600    1.394147   -0.000000
 ---------------------------------------------------------------------
 Rotational constants (GHZ):         638.3912862          15.0026954          14.6582159

 **********************************************************************

            Population analysis using the SCF density.

 **********************************************************************

 Orbital symmetries:
       Occupied  (A') (A') (A') (A') (A') (A") (A') (A') (A') (A')
                 (A") (A') (A")
       Virtual   (A') (A') (A') (A') (A') (A") (A') (A') (A") (A')
                 (A") (A') (A") (A') (A') (A') (A") (A') (A') (A")
                 (A') (A") (A') (A')
 The electronic state is 1-A'.
 Alpha  occ. eigenvalues -- -101.53917 -19.19153  -9.49150  -7.26486  -7.24851
 Alpha  occ. eigenvalues --   -7.24813  -1.04900  -0.79052  -0.52804  -0.42887
 Alpha  occ. eigenvalues --   -0.40074  -0.30918  -0.27488
 Alpha virt. eigenvalues --   -0.06107   0.06403   0.45037   0.54496   0.69516
 Alpha virt. eigenvalues --    0.69929   0.72303   0.76132   0.76238   0.84247
 Alpha virt. eigenvalues --    0.84838   0.95105   0.99805   1.05381   1.12899
 Alpha virt. eigenvalues --    1.28883   1.42442   1.59190   2.16314   2.62642
 Alpha virt. eigenvalues --    2.85035   2.92052   2.96355   3.63895
          Condensed to atoms (all electrons):
               1          2          3
     1  O    7.897740   0.110891   0.308359
     2  Cl   0.110891  16.807548  -0.023547
     3  H    0.308359  -0.023547   0.503306
 Mulliken charges:
               1
     1  O   -0.316990
     2  Cl   0.105108
     3  H    0.211882
 Sum of Mulliken charges =   0.00000
 Mulliken charges with hydrogens summed into heavy atoms:
               1
     1  O   -0.105108
     2  Cl   0.105108
 Electronic spatial extent (au):  <R**2>=            104.0010
 Charge=              0.0000 electrons
 Dipole moment (field-independent basis, Debye):
    X=             -1.6620    Y=              0.1619    Z=             -0.0000  Tot=              1.6699
 Quadrupole moment (field-independent basis, Debye-Ang):
   XX=            -16.6097   YY=            -15.9967   ZZ=            -18.5629
   XY=             -2.6876   XZ=              0.0000   YZ=              0.0000
 Traceless Quadrupole moment (field-independent basis, Debye-Ang):
   XX=              0.4467   YY=              1.0597   ZZ=             -1.5065
   XY=             -2.6876   XZ=              0.0000   YZ=              0.0000
 Octapole moment (field-independent basis, Debye-Ang**2):
  XXX=             -2.0626  YYY=              1.4644  ZZZ=             -0.0000  XYY=             -3.8260
  XXY=              3.2219  XXZ=             -0.0000  XZZ=             -0.2441  YZZ=              0.6719
  YYZ=             -0.0000  XYZ=              0.0000
 Hexadecapole moment (field-independent basis, Debye-Ang**3):
 XXXX=            -16.8354 YYYY=            -74.7494 ZZZZ=            -16.5783 XXXY=             -0.4182
 XXXZ=              0.0000 YYYX=             -3.9418 YYYZ=              0.0000 ZZZX=             -0.0000
 ZZZY=              0.0000 XXYY=            -14.3707 XXZZ=             -5.8284 YYZZ=            -17.6265
 XXYZ=              0.0000 YYXZ=              0.0000 ZZXY=              0.5130
 N-N= 5.091392877657D+01 E-N=-1.374875920993D+03  KE= 5.344163789410D+02
 Symmetry A'   KE= 4.836588356193D+02
 Symmetry A"   KE= 5.075754332169D+01


 We're simply so accustomed to the marvels of everyday thought
 that we never wonder about it.
 -- Marvin Minsky in "Why people think computers are smart"
 Error termination request processed by link 9999.
 Error termination via Lnk1e in /share/apps/g16.a03/g16/l9999.exe at Thu Mar  6 16:38:34 2025.
 Job cpu time:       0 days  0 hours 13 minutes  6.7 seconds.
 Elapsed time:       0 days  0 hours  1 minutes 42.1 seconds.
 File lengths (MBytes):  RWF=      6 Int=      0 D2E=      0 Chk=      1 Scr=      1
