 Entering Gaussian System, Link 0=g16
 Input=ts.gjf
 Output=ts.log
 Initial command:
 /share/apps/g16.a03/g16/l1.exe "/tmp/Gau-24273.inp" -scrdir="/tmp/"
 Entering Link 1 = /share/apps/g16.a03/g16/l1.exe PID=     24274.
  
 Copyright (c) 1988,1990,1992,1993,1995,1998,2003,2009,2016,
            Gaussian, Inc.  All Rights Reserved.
  
 This is part of the Gaussian(R) 16 program.  It is based on
 the Gaussian(R) 09 system (copyright 2009, Gaussian, Inc.),
 the Gaussian(R) 03 system (copyright 2003, Gaussian, Inc.),
 the Gaussian(R) 98 system (copyright 1998, Gaussian, Inc.),
 the Gaussian(R) 94 system (copyright 1995, Gaussian, Inc.),
 the Gaussian 92(TM) system (copyright 1992, Gaussian, Inc.),
 the Gaussian 90(TM) system (copyright 1990, Gaussian, Inc.),
 the Gaussian 88(TM) system (copyright 1988, Gaussian, Inc.),
 the Gaussian 86(TM) system (copyright 1986, Carnegie Mellon
 University), and the Gaussian 82(TM) system (copyright 1983,
 Carnegie Mellon University). Gaussian is a federally registered
 trademark of Gaussian, Inc.
  
 This software contains proprietary and confidential information,
 including trade secrets, belonging to Gaussian, Inc.
  
 This software is provided under written license and may be
 used, copied, transmitted, or stored only in accord with that
 written license.
  
 The following legend is applicable only to US Government
 contracts under FAR:
  
                    RESTRICTED RIGHTS LEGEND
  
 Use, reproduction and disclosure by the US Government is
 subject to restrictions as set forth in subparagraphs (a)
 and (c) of the Commercial Computer Software - Restricted
 Rights clause in FAR 52.227-19.
  
 Gaussian, Inc.
 340 Quinnipiac St., Bldg. 40, Wallingford CT 06492
  
  
 ---------------------------------------------------------------
 Warning -- This program may not be used in any manner that
 competes with the business of Gaussian, Inc. or will provide
 assistance to any competitor of Gaussian, Inc.  The licensee
 of this program is prohibited from giving any competitor of
 Gaussian, Inc. access to this program.  By using this program,
 the user acknowledges that Gaussian, Inc. is engaged in the
 business of creating and licensing software in the field of
 computational chemistry and represents and warrants to the
 licensee that it is not a competitor of Gaussian, Inc. and that
 it will not use this program in any manner prohibited above.
 ---------------------------------------------------------------
  

 Cite this work as:
 Gaussian 16, Revision A.03,
 M. J. Frisch, G. W. Trucks, H. B. Schlegel, G. E. Scuseria, 
 M. A. Robb, J. R. Cheeseman, G. Scalmani, V. Barone, 
 G. A. Petersson, H. Nakatsuji, X. Li, M. Caricato, A. V. Marenich, 
 J. Bloino, B. G. Janesko, R. Gomperts, B. Mennucci, H. P. Hratchian, 
 J. V. Ortiz, A. F. Izmaylov, J. L. Sonnenberg, D. Williams-Young, 
 F. Ding, F. Lipparini, F. Egidi, J. Goings, B. Peng, A. Petrone, 
 T. Henderson, D. Ranasinghe, V. G. Zakrzewski, J. Gao, N. Rega, 
 G. Zheng, W. Liang, M. Hada, M. Ehara, K. Toyota, R. Fukuda, 
 J. Hasegawa, M. Ishida, T. Nakajima, Y. Honda, O. Kitao, H. Nakai, 
 T. Vreven, K. Throssell, J. A. Montgomery, Jr., J. E. Peralta, 
 F. Ogliaro, M. J. Bearpark, J. J. Heyd, E. N. Brothers, K. N. Kudin, 
 V. N. Staroverov, T. A. Keith, R. Kobayashi, J. Normand, 
 K. Raghavachari, A. P. Rendell, J. C. Burant, S. S. Iyengar, 
 J. Tomasi, M. Cossi, J. M. Millam, M. Klene, C. Adamo, R. Cammi, 
 J. W. Ochterski, R. L. Martin, K. Morokuma, O. Farkas, 
 J. B. Foresman, and D. J. Fox, Gaussian, Inc., Wallingford CT, 2016.
 
 ******************************************
 Gaussian 16:  EM64L-G16RevA.03 25-Dec-2016
                 6-Mar-2025 
 ******************************************
 %nproc=8
 Will use up to    8 processors via shared memory.
 %mem=4000MB
 --------------------------------------------------------------------
 #opt=(noeigen,calcfc,ts,recalc=5,maxcyc=200) freq B3LYP/SVP em=GD3BJ
 --------------------------------------------------------------------
 1/5=1,6=200,10=4,11=1,18=20,26=3,38=1,71=5/1,3;
 2/9=110,12=2,17=6,18=5,40=1/2;
 3/5=18,7=101,11=2,25=1,30=1,71=2,74=-5,124=41,140=1/1,2,3;
 4//1;
 5/5=2,38=5/2;
 8/6=4,10=90,11=11/1;
 11/6=1,8=1,9=11,15=111,16=1/1,2,10;
 10/6=1,13=1/2;
 6/7=2,8=2,9=2,10=2,28=1/1;
 7/10=1,18=20,25=1/1,2,3,16;
 1/5=1,6=200,10=4,11=1,18=20,26=3,71=5/3(2);
 2/9=110/2;
 99//99;
 2/9=110/2;
 3/5=18,7=101,11=2,25=1,30=1,71=1,74=-5,124=41/1,2,3;
 4/5=5,16=3,69=1/1;
 5/5=2,38=5/2;
 7//1,2,3,16;
 1/5=1,6=200,11=1,18=20,26=3,71=5/3(-5);
 2/9=110/2;
 6/7=2,8=2,9=2,10=2,19=2,28=1/1;
 99/9=1/99;
 -----------
 ts-1297.gjf
 -----------
 Symbolic Z-matrix:
 Charge =  0 Multiplicity = 1
 O                     3.57617  -4.67604   2.53623 
 Cl                    4.42557  -2.92884   2.30892 
 H                     3.91761  -5.10824   3.326 
 

 GradGradGradGradGradGradGradGradGradGradGradGradGradGradGradGradGradGrad
 Berny optimization.
 Initialization pass.
                           ----------------------------
                           !    Initial Parameters    !
                           ! (Angstroms and Degrees)  !
 --------------------------                            --------------------------
 ! Name  Definition              Value          Derivative Info.                !
 --------------------------------------------------------------------------------
 ! R1    R(1,2)                  1.956          calculate D2E/DX2 analytically  !
 ! R2    R(1,3)                  0.9629         calculate D2E/DX2 analytically  !
 ! A1    A(2,1,3)              110.0161         calculate D2E/DX2 analytically  !
 --------------------------------------------------------------------------------
 Trust Radius=3.00D-01 FncErr=1.00D-07 GrdErr=1.00D-06 EigMax=2.50D+02 EigMin=1.00D-04
 Number of steps in this run=    100 maximum allowed number of steps=    100.
 Search for a saddle point of order  1.
 GradGradGradGradGradGradGradGradGradGradGradGradGradGradGradGradGradGrad

                          Input orientation:                          
 ---------------------------------------------------------------------
 Center     Atomic      Atomic             Coordinates (Angstroms)
 Number     Number       Type             X           Y           Z
 ---------------------------------------------------------------------
      1          8           0        3.576172   -4.676043    2.536232
      2         17           0        4.425572   -2.928835    2.308921
      3          1           0        3.917613   -5.108240    3.325996
 ---------------------------------------------------------------------
                    Distance matrix (angstroms):
                    1          2          3
     1  O    0.000000
     2  Cl   1.955987   0.000000
     3  H    0.962863   2.458103   0.000000
 Stoichiometry    ClHO
 Framework group  CS[SG(ClHO)]
 Deg. of freedom     3
 Full point group                 CS      NOp   2
 Largest Abelian subgroup         CS      NOp   2
 Largest concise Abelian subgroup C1      NOp   1
                         Standard orientation:                         
 ---------------------------------------------------------------------
 Center     Atomic      Atomic             Coordinates (Angstroms)
 Number     Number       Type             X           Y           Z
 ---------------------------------------------------------------------
      1          8           0        0.034796    1.266239   -0.000000
      2         17           0        0.034796   -0.689748    0.000000
      3          1           0       -0.869906    1.595812   -0.000000
 ---------------------------------------------------------------------
 Rotational constants (GHZ):         666.6263537          11.2804405          11.0927328
 Standard basis: SVP (5D, 7F)
 There are    29 symmetry adapted cartesian basis functions of A'  symmetry.
 There are    10 symmetry adapted cartesian basis functions of A"  symmetry.
 There are    27 symmetry adapted basis functions of A'  symmetry.
 There are    10 symmetry adapted basis functions of A"  symmetry.
    37 basis functions,    69 primitive gaussians,    39 cartesian basis functions
    13 alpha electrons       13 beta electrons
       nuclear repulsion energy        44.8501900054 Hartrees.
 NAtoms=    3 NActive=    3 NUniq=    3 SFac= 1.00D+00 NAtFMM=   60 NAOKFM=F Big=F
 Integral buffers will be    131072 words long.
 Raffenetti 2 integral format.
 Two-electron integral symmetry is turned on.
 Nuclear repulsion after empirical dispersion term =       44.8486106078 Hartrees.
 One-electron integrals computed using PRISM.
 NBasis=    37 RedAO= T EigKep=  4.73D-02  NBF=    27    10
 NBsUse=    37 1.00D-06 EigRej= -1.00D+00 NBFU=    27    10
 ExpMin= 1.22D-01 ExpMax= 1.04D+04 ExpMxC= 1.57D+03 IAcc=3 IRadAn=         5 AccDes= 0.00D+00
 Harris functional with IExCor=  402 and IRadAn=       5 diagonalized for initial guess.
 HarFok:  IExCor=  402 AccDes= 0.00D+00 IRadAn=         5 IDoV= 1 UseB2=F ITyADJ=14
 ICtDFT=  3500011 ScaDFX=  1.000000  1.000000  1.000000  1.000000
 FoFCou: FMM=F IPFlag=           0 FMFlag=      100000 FMFlg1=           0
         NFxFlg=           0 DoJE=T BraDBF=F KetDBF=T FulRan=T
         wScrn=  0.000000 ICntrl=       500 IOpCl=  0 I1Cent=   200000004 NGrid=           0
         NMat0=    1 NMatS0=      1 NMatT0=    0 NMatD0=    1 NMtDS0=    0 NMtDT0=    0
 Petite list used in FoFCou.
 Initial guess orbital symmetries:
       Occupied  (A') (A') (A') (A') (A') (A") (A') (A') (A') (A')
                 (A") (A') (A")
       Virtual   (A') (A') (A') (A') (A') (A") (A') (A') (A") (A')
                 (A") (A') (A") (A') (A') (A') (A") (A') (A') (A")
                 (A') (A") (A') (A')
 The electronic state of the initial guess is 1-A'.
 Keep R1 ints in memory in symmetry-blocked form, NReq=7153137.
 Requested convergence on RMS density matrix=1.00D-08 within 128 cycles.
 Requested convergence on MAX density matrix=1.00D-06.
 Requested convergence on             energy=1.00D-06.
 No special actions if energy rises.
 Integral accuracy reduced to 1.0D-05 until final iterations.
 Initial convergence to 1.0D-05 achieved.  Increase integral accuracy.
 SCF Done:  E(RB3LYP) =  -535.740966680     A.U. after   12 cycles
            NFock= 12  Conv=0.69D-08     -V/T= 2.0030
 DoSCS=F DFT=T ScalE2(SS,OS)=  1.000000  1.000000
 Range of M.O.s used for correlation:     1    37
 NBasis=    37 NAE=    13 NBE=    13 NFC=     0 NFV=     0
 NROrb=     37 NOA=    13 NOB=    13 NVA=    24 NVB=    24
 Symmetrizing basis deriv contribution to polar:
 IMax=3 JMax=2 DiffMx= 0.00D+00
 G2DrvN: will do     4 centers at a time, making    1 passes.
 Calling FoFCou, ICntrl=  3107 FMM=F I1Cent=   0 AccDes= 0.00D+00.
 End of G2Drv F.D. properties file   721 does not exist.
 End of G2Drv F.D. properties file   722 does not exist.
 End of G2Drv F.D. properties file   788 does not exist.
          IDoAtm=111
          Differentiating once with respect to nuclear coordinates.
 Keep R1 ints in memory in symmetry-blocked form, NReq=7127942.
          There are    12 degrees of freedom in the 1st order CPHF.  IDoFFX=6 NUNeed=     0.
      6 vectors produced by pass  0 Test12= 2.60D-15 8.33D-09 XBig12= 7.44D-02 1.95D-01.
 AX will form     6 AO Fock derivatives at one time.
      6 vectors produced by pass  1 Test12= 2.60D-15 8.33D-09 XBig12= 4.60D-02 1.13D-01.
      6 vectors produced by pass  2 Test12= 2.60D-15 8.33D-09 XBig12= 8.58D-04 1.02D-02.
      6 vectors produced by pass  3 Test12= 2.60D-15 8.33D-09 XBig12= 3.26D-05 1.80D-03.
      6 vectors produced by pass  4 Test12= 2.60D-15 8.33D-09 XBig12= 5.11D-07 2.22D-04.
      6 vectors produced by pass  5 Test12= 2.60D-15 8.33D-09 XBig12= 1.52D-09 1.17D-05.
      3 vectors produced by pass  6 Test12= 2.60D-15 8.33D-09 XBig12= 1.43D-12 3.24D-07.
      1 vectors produced by pass  7 Test12= 2.60D-15 8.33D-09 XBig12= 1.06D-15 1.00D-08.
 InvSVY:  IOpt=1 It=  1 EMax= 1.11D-16
 Solved reduced A of dimension    40 with     6 vectors.
 End of Minotr F.D. properties file   721 does not exist.
 End of Minotr F.D. properties file   722 does not exist.
 End of Minotr F.D. properties file   788 does not exist.

 **********************************************************************

            Population analysis using the SCF density.

 **********************************************************************

 Orbital symmetries:
       Occupied  (A') (A') (A') (A') (A') (A") (A') (A') (A') (A')
                 (A") (A') (A")
       Virtual   (A') (A') (A') (A') (A') (A") (A') (A') (A") (A')
                 (A") (A') (A") (A') (A') (A') (A") (A') (A') (A")
                 (A') (A') (A") (A')
 The electronic state is 1-A'.
 Alpha  occ. eigenvalues -- -101.54744 -19.20542  -9.49641  -7.27006  -7.25372
 Alpha  occ. eigenvalues --   -7.25349  -1.00088  -0.80353  -0.50042  -0.40347
 Alpha  occ. eigenvalues --   -0.37003  -0.32366  -0.29841
 Alpha virt. eigenvalues --   -0.14649   0.05991   0.46106   0.55935   0.68270
 Alpha virt. eigenvalues --    0.70043   0.70292   0.76424   0.76453   0.83669
 Alpha virt. eigenvalues --    0.83969   0.93778   0.98589   1.00170   1.08080
 Alpha virt. eigenvalues --    1.25474   1.41770   1.59940   2.17662   2.59662
 Alpha virt. eigenvalues --    2.70917   2.92366   2.93982   3.65624
          Condensed to atoms (all electrons):
               1          2          3
     1  O    7.825781   0.148502   0.293742
     2  Cl   0.148502  16.797912  -0.009146
     3  H    0.293742  -0.009146   0.510110
 Mulliken charges:
               1
     1  O   -0.268025
     2  Cl   0.062732
     3  H    0.205294
 Sum of Mulliken charges =  -0.00000
 Mulliken charges with hydrogens summed into heavy atoms:
               1
     1  O   -0.062732
     2  Cl   0.062732
 APT charges:
               1
     1  O   -0.566040
     2  Cl   0.075436
     3  H    0.490604
 Sum of APT charges =  -0.00000
 APT charges with hydrogens summed into heavy atoms:
               1
     1  O   -0.075436
     2  Cl   0.075436
 Electronic spatial extent (au):  <R**2>=            124.1947
 Charge=             -0.0000 electrons
 Dipole moment (field-independent basis, Debye):
    X=             -1.6119    Y=              0.2204    Z=             -0.0000  Tot=              1.6269
 Quadrupole moment (field-independent basis, Debye-Ang):
   XX=            -16.8598   YY=            -14.9884   ZZ=            -18.7284
   XY=             -2.9254   XZ=              0.0000   YZ=              0.0000
 Traceless Quadrupole moment (field-independent basis, Debye-Ang):
   XX=             -0.0009   YY=              1.8705   ZZ=             -1.8696
   XY=             -2.9254   XZ=              0.0000   YZ=              0.0000
 Octapole moment (field-independent basis, Debye-Ang**2):
  XXX=             -1.8909  YYY=              3.4266  ZZZ=              0.0000  XYY=             -4.5693
  XXY=              3.3873  XXZ=              0.0000  XZZ=             -0.2347  YZZ=              0.5672
  YYZ=              0.0000  XYZ=             -0.0000
 Hexadecapole moment (field-independent basis, Debye-Ang**3):
 XXXX=            -17.1319 YYYY=            -90.9213 ZZZZ=            -16.7610 XXXY=             -0.2681
 XXXZ=              0.0000 YYYX=             -5.7975 YYYZ=             -0.0000 ZZZX=              0.0000
 ZZZY=             -0.0000 XXYY=            -17.4070 XXZZ=             -5.8813 YYZZ=            -21.5550
 XXYZ=             -0.0000 YYXZ=              0.0000 ZZXY=              0.5873
 N-N= 4.484861060780D+01 E-N=-1.362528782454D+03  KE= 5.341176990772D+02
 Symmetry A'   KE= 4.833795459175D+02
 Symmetry A"   KE= 5.073815315975D+01
  Exact polarizability:   0.000   0.000   0.000   0.000   0.000   0.000
 Approx polarizability:  13.871  -1.821  59.017   0.000   0.000   9.839
 Calling FoFJK, ICntrl=    100147 FMM=F ISym2X=1 I1Cent= 0 IOpClX= 0 NMat=1 NMatS=1 NMatT=0.
 ***** Axes restored to original set *****
 -------------------------------------------------------------------
 Center     Atomic                   Forces (Hartrees/Bohr)
 Number     Number              X              Y              Z
 -------------------------------------------------------------------
      1        8           0.004716627    0.045975438   -0.029433941
      2       17          -0.020865695   -0.054607930    0.014660949
      3        1           0.016149069    0.008632493    0.014772992
 -------------------------------------------------------------------
 Cartesian Forces:  Max     0.054607930 RMS     0.028261172
 FormGI is forming the generalized inverse of G from B-inverse, IUseBI=4.

 GradGradGradGradGradGradGradGradGradGradGradGradGradGradGradGradGradGrad
 Berny optimization.
 Internal  Forces:  Max     0.059544040 RMS     0.040526873
 Search for a saddle point.
 Step number   1 out of a maximum of  100
 All quantities printed in internal units (Hartrees-Bohrs-Radians)
 Swapping is turned off.
 Second derivative matrix not updated -- analytic derivatives used.
 The second derivative matrix:
                          R1        R2        A1
           R1           0.04987
           R2          -0.00808   0.54768
           A1           0.00880  -0.00341   0.13315
 ITU=  0
     Eigenvalues ---    0.04883   0.13402   0.54784
 Eigenvectors required to have negative eigenvalues:
                          R1        A1        R2
   1                    0.99454  -0.10317   0.01540
 RFO step:  Lambda0=8.500096058D-02 Lambda=-1.15464124D-02.
 Linear search not attempted -- option 19 set.
 Maximum step size (   0.300) exceeded in Quadratic search.
    -- Step size scaled by   0.763
 Iteration  1 RMS(Cart)=  0.12794467 RMS(Int)=  0.02576827
 Iteration  2 RMS(Cart)=  0.03372117 RMS(Int)=  0.00062803
 Iteration  3 RMS(Cart)=  0.00045118 RMS(Int)=  0.00000008
 Iteration  4 RMS(Cart)=  0.00000011 RMS(Int)=  0.00000000
 ClnCor:  largest displacement from symmetrization is 2.66D-15 for atom     1.
 Variable       Old X    -DE/DX   Delta X   Delta X   Delta X     New X
                                 (Linear)    (Quad)   (Total)
    R1        3.69628  -0.05954   0.00000   0.18889   0.18889   3.88517
    R2        1.81955   0.01397   0.00000   0.02190   0.02190   1.84145
    A1        1.92014  -0.03445   0.00000  -0.23204  -0.23204   1.68810
         Item               Value     Threshold  Converged?
 Maximum Force            0.059544     0.000450     NO 
 RMS     Force            0.040527     0.000300     NO 
 Maximum Displacement     0.138903     0.001800     NO 
 RMS     Displacement     0.151349     0.001200     NO 
 Predicted change in Energy= 7.151506D-03
 GradGradGradGradGradGradGradGradGradGradGradGradGradGradGradGradGradGrad

                          Input orientation:                          
 ---------------------------------------------------------------------
 Center     Atomic      Atomic             Coordinates (Angstroms)
 Number     Number       Type             X           Y           Z
 ---------------------------------------------------------------------
      1          8           0        3.510734   -4.749547    2.506290
      2         17           0        4.450349   -2.928324    2.341476
      3          1           0        3.958274   -5.035248    3.323383
 ---------------------------------------------------------------------
                    Distance matrix (angstroms):
                    1          2          3
     1  O    0.000000
     2  Cl   2.055941   0.000000
     3  H    0.974452   2.376007   0.000000
 Stoichiometry    ClHO
 Framework group  CS[SG(ClHO)]
 Deg. of freedom     3
 Full point group                 CS      NOp   2
 Largest Abelian subgroup         CS      NOp   2
 Largest concise Abelian subgroup C1      NOp   1
                         Standard orientation:                         
 ---------------------------------------------------------------------
 Center     Atomic      Atomic             Coordinates (Angstroms)
 Number     Number       Type             X           Y           Z
 ---------------------------------------------------------------------
      1          8           0        0.037221    1.339883   -0.000000
      2         17           0        0.037221   -0.716059    0.000000
      3          1           0       -0.930534    1.453932    0.000000
 ---------------------------------------------------------------------
 Rotational constants (GHZ):         573.5827709          10.3705908          10.1864165
 Standard basis: SVP (5D, 7F)
 There are    29 symmetry adapted cartesian basis functions of A'  symmetry.
 There are    10 symmetry adapted cartesian basis functions of A"  symmetry.
 There are    27 symmetry adapted basis functions of A'  symmetry.
 There are    10 symmetry adapted basis functions of A"  symmetry.
    37 basis functions,    69 primitive gaussians,    39 cartesian basis functions
    13 alpha electrons       13 beta electrons
       nuclear repulsion energy        43.1355350021 Hartrees.
 NAtoms=    3 NActive=    3 NUniq=    3 SFac= 1.00D+00 NAtFMM=   60 NAOKFM=F Big=F
 Integral buffers will be    131072 words long.
 Raffenetti 2 integral format.
 Two-electron integral symmetry is turned on.
 Nuclear repulsion after empirical dispersion term =       43.1339338152 Hartrees.
 One-electron integrals computed using PRISM.
 NBasis=    37 RedAO= T EigKep=  4.90D-02  NBF=    27    10
 NBsUse=    37 1.00D-06 EigRej= -1.00D+00 NBFU=    27    10
 Initial guess from the checkpoint file:  "/tmp/Gau-24274.chk"
 B after Tr=    -0.000000    0.000000    0.000000
         Rot=    0.999990    0.000000    0.000000   -0.004556 Ang=  -0.52 deg.
 Initial guess orbital symmetries:
       Occupied  (A') (A') (A') (A') (A') (A") (A') (A') (A') (A')
                 (A") (A') (A")
       Virtual   (A') (A') (A') (A') (A') (A") (A') (A') (A") (A')
                 (A") (A') (A") (A') (A') (A') (A") (A') (A') (A")
                 (A') (A') (A") (A')
 ExpMin= 1.22D-01 ExpMax= 1.04D+04 ExpMxC= 1.57D+03 IAcc=2 IRadAn=         4 AccDes= 0.00D+00
 Harris functional with IExCor=  402 and IRadAn=       4 diagonalized for initial guess.
 HarFok:  IExCor=  402 AccDes= 0.00D+00 IRadAn=         4 IDoV= 1 UseB2=F ITyADJ=14
 ICtDFT=  3500011 ScaDFX=  1.000000  1.000000  1.000000  1.000000
 FoFCou: FMM=F IPFlag=           0 FMFlag=      100000 FMFlg1=           0
         NFxFlg=           0 DoJE=T BraDBF=F KetDBF=T FulRan=T
         wScrn=  0.000000 ICntrl=       500 IOpCl=  0 I1Cent=   200000004 NGrid=           0
         NMat0=    1 NMatS0=      1 NMatT0=    0 NMatD0=    1 NMtDS0=    0 NMtDT0=    0
 Petite list used in FoFCou.
 Keep R1 ints in memory in symmetry-blocked form, NReq=7153137.
 Requested convergence on RMS density matrix=1.00D-08 within 128 cycles.
 Requested convergence on MAX density matrix=1.00D-06.
 Requested convergence on             energy=1.00D-06.
 No special actions if energy rises.
 Integral accuracy reduced to 1.0D-05 until final iterations.
 Initial convergence to 1.0D-05 achieved.  Increase integral accuracy.
 SCF Done:  E(RB3LYP) =  -535.734086783     A.U. after   13 cycles
            NFock= 13  Conv=0.80D-08     -V/T= 2.0031
 Calling FoFJK, ICntrl=      2127 FMM=F ISym2X=1 I1Cent= 0 IOpClX= 0 NMat=1 NMatS=1 NMatT=0.
 ***** Axes restored to original set *****
 -------------------------------------------------------------------
 Center     Atomic                   Forces (Hartrees/Bohr)
 Number     Number              X              Y              Z
 -------------------------------------------------------------------
      1        8           0.025116132    0.054589230   -0.008993567
      2       17          -0.028203603   -0.056532576    0.006396692
      3        1           0.003087470    0.001943346    0.002596875
 -------------------------------------------------------------------
 Cartesian Forces:  Max     0.056532576 RMS     0.029333398

 GradGradGradGradGradGradGradGradGradGradGradGradGradGradGradGradGradGrad
 Berny optimization.
 FormGI is forming the generalized inverse of G from B-inverse, IUseBI=4.
 Internal  Forces:  Max     0.063481338 RMS     0.036860137
 Search for a saddle point.
 Step number   2 out of a maximum of  100
 All quantities printed in internal units (Hartrees-Bohrs-Radians)
 Swapping is turned off.
 Update second derivatives using D2CorX and points    1    2
 The second derivative matrix:
                          R1        R2        A1
           R1           0.03807
           R2          -0.00925   0.54757
           A1           0.01315  -0.00300   0.13268
 ITU=  0  0
     Eigenvalues ---    0.03613   0.13443   0.54776
 Eigenvectors required to have negative eigenvalues:
                          R1        A1        R2
   1                    0.99077  -0.13445   0.01712
 RFO step:  Lambda0=8.266861433D-02 Lambda=-1.58250221D-03.
 Linear search not attempted -- option 19 set.
 Iteration  1 RMS(Cart)=  0.08071361 RMS(Int)=  0.00531871
 Iteration  2 RMS(Cart)=  0.00436981 RMS(Int)=  0.00000704
 Iteration  3 RMS(Cart)=  0.00000841 RMS(Int)=  0.00000000
 Iteration  4 RMS(Cart)=  0.00000000 RMS(Int)=  0.00000000
 ClnCor:  largest displacement from symmetrization is 3.97D-15 for atom     3.
 Variable       Old X    -DE/DX   Delta X   Delta X   Delta X     New X
                                 (Linear)    (Quad)   (Total)
    R1        3.88517  -0.06348   0.00000   0.09156   0.09156   3.97673
    R2        1.84145   0.00303   0.00000   0.00845   0.00845   1.84990
    A1        1.68810  -0.00608   0.00000  -0.12022  -0.12022   1.56788
         Item               Value     Threshold  Converged?
 Maximum Force            0.063481     0.000450     NO 
 RMS     Force            0.036860     0.000300     NO 
 Maximum Displacement     0.084983     0.001800     NO 
 RMS     Displacement     0.082264     0.001200     NO 
 Predicted change in Energy= 6.044945D-03
 GradGradGradGradGradGradGradGradGradGradGradGradGradGradGradGradGradGrad

                          Input orientation:                          
 ---------------------------------------------------------------------
 Center     Atomic      Atomic             Coordinates (Angstroms)
 Number     Number       Type             X           Y           Z
 ---------------------------------------------------------------------
      1          8           0        3.479641   -4.789497    2.495964
      2         17           0        4.461934   -2.933345    2.360783
      3          1           0        3.977782   -4.990276    3.314402
 ---------------------------------------------------------------------
                    Distance matrix (angstroms):
                    1          2          3
     1  O    0.000000
     2  Cl   2.104393   0.000000
     3  H    0.978926   2.318352   0.000000
 Stoichiometry    ClHO
 Framework group  CS[SG(ClHO)]
 Deg. of freedom     3
 Full point group                 CS      NOp   2
 Largest Abelian subgroup         CS      NOp   2
 Largest concise Abelian subgroup C1      NOp   1
                         Standard orientation:                         
 ---------------------------------------------------------------------
 Center     Atomic      Atomic             Coordinates (Angstroms)
 Number     Number       Type             X           Y           Z
 ---------------------------------------------------------------------
      1          8           0        0.037651    1.376059    0.000000
      2         17           0        0.037651   -0.728334   -0.000000
      3          1           0       -0.941271    1.373205    0.000000
 ---------------------------------------------------------------------
 Rotational constants (GHZ):         556.5932409           9.9692838           9.7938634
 Standard basis: SVP (5D, 7F)
 There are    29 symmetry adapted cartesian basis functions of A'  symmetry.
 There are    10 symmetry adapted cartesian basis functions of A"  symmetry.
 There are    27 symmetry adapted basis functions of A'  symmetry.
 There are    10 symmetry adapted basis functions of A"  symmetry.
    37 basis functions,    69 primitive gaussians,    39 cartesian basis functions
    13 alpha electrons       13 beta electrons
       nuclear repulsion energy        42.4038765365 Hartrees.
 NAtoms=    3 NActive=    3 NUniq=    3 SFac= 1.00D+00 NAtFMM=   60 NAOKFM=F Big=F
 Integral buffers will be    131072 words long.
 Raffenetti 2 integral format.
 Two-electron integral symmetry is turned on.
 Nuclear repulsion after empirical dispersion term =       42.4022539976 Hartrees.
 One-electron integrals computed using PRISM.
 NBasis=    37 RedAO= T EigKep=  5.00D-02  NBF=    27    10
 NBsUse=    37 1.00D-06 EigRej= -1.00D+00 NBFU=    27    10
 Initial guess from the checkpoint file:  "/tmp/Gau-24274.chk"
 B after Tr=     0.000000    0.000000   -0.000000
         Rot=    0.999998    0.000000   -0.000000   -0.001779 Ang=  -0.20 deg.
 Initial guess orbital symmetries:
       Occupied  (A') (A') (A') (A') (A') (A") (A') (A') (A') (A')
                 (A") (A') (A")
       Virtual   (A') (A') (A') (A') (A') (A") (A') (A') (A") (A')
                 (A") (A') (A') (A") (A') (A') (A") (A') (A') (A")
                 (A') (A') (A") (A')
 ExpMin= 1.22D-01 ExpMax= 1.04D+04 ExpMxC= 1.57D+03 IAcc=2 IRadAn=         4 AccDes= 0.00D+00
 Harris functional with IExCor=  402 and IRadAn=       4 diagonalized for initial guess.
 HarFok:  IExCor=  402 AccDes= 0.00D+00 IRadAn=         4 IDoV= 1 UseB2=F ITyADJ=14
 ICtDFT=  3500011 ScaDFX=  1.000000  1.000000  1.000000  1.000000
 FoFCou: FMM=F IPFlag=           0 FMFlag=      100000 FMFlg1=           0
         NFxFlg=           0 DoJE=T BraDBF=F KetDBF=T FulRan=T
         wScrn=  0.000000 ICntrl=       500 IOpCl=  0 I1Cent=   200000004 NGrid=           0
         NMat0=    1 NMatS0=      1 NMatT0=    0 NMatD0=    1 NMtDS0=    0 NMtDT0=    0
 Petite list used in FoFCou.
 Keep R1 ints in memory in symmetry-blocked form, NReq=7153137.
 Requested convergence on RMS density matrix=1.00D-08 within 128 cycles.
 Requested convergence on MAX density matrix=1.00D-06.
 Requested convergence on             energy=1.00D-06.
 No special actions if energy rises.
 Integral accuracy reduced to 1.0D-05 until final iterations.
 Initial convergence to 1.0D-05 achieved.  Increase integral accuracy.
 SCF Done:  E(RB3LYP) =  -535.728199941     A.U. after   13 cycles
            NFock= 13  Conv=0.46D-08     -V/T= 2.0032
 Calling FoFJK, ICntrl=      2127 FMM=F ISym2X=1 I1Cent= 0 IOpClX= 0 NMat=1 NMatS=1 NMatT=0.
 ***** Axes restored to original set *****
 -------------------------------------------------------------------
 Center     Atomic                   Forces (Hartrees/Bohr)
 Number     Number              X              Y              Z
 -------------------------------------------------------------------
      1        8           0.032673650    0.058578909   -0.002041047
      2       17          -0.030365903   -0.055190834    0.002478882
      3        1          -0.002307747   -0.003388075   -0.000437835
 -------------------------------------------------------------------
 Cartesian Forces:  Max     0.058578909 RMS     0.030721833

 GradGradGradGradGradGradGradGradGradGradGradGradGradGradGradGradGradGrad
 Berny optimization.
 FormGI is forming the generalized inverse of G from B-inverse, IUseBI=4.
 Internal  Forces:  Max     0.063013973 RMS     0.036638706
 Search for a saddle point.
 Step number   3 out of a maximum of  100
 All quantities printed in internal units (Hartrees-Bohrs-Radians)
 Swapping is turned off.
 Update second derivatives using D2CorX and points    1    2    3
 The second derivative matrix:
                          R1        R2        A1
           R1           0.02379
           R2          -0.01093   0.54737
           A1           0.02124  -0.00203   0.12869
 ITU=  0  0  0
     Eigenvalues ---    0.01945   0.13278   0.54761
 Eigenvectors required to have negative eigenvalues:
                          R1        A1        R2
   1                    0.98150  -0.19044   0.01959
 RFO step:  Lambda0=7.375404049D-02 Lambda=-1.64472352D-04.
 Linear search not attempted -- option 19 set.
 Iteration  1 RMS(Cart)=  0.02884416 RMS(Int)=  0.00065946
 Iteration  2 RMS(Cart)=  0.00050596 RMS(Int)=  0.00000007
 Iteration  3 RMS(Cart)=  0.00000009 RMS(Int)=  0.00000000
 ClnCor:  largest displacement from symmetrization is 5.48D-15 for atom     3.
 Variable       Old X    -DE/DX   Delta X   Delta X   Delta X     New X
                                 (Linear)    (Quad)   (Total)
    R1        3.97673  -0.06301   0.00000   0.02779   0.02779   4.00452
    R2        1.84990  -0.00085   0.00000   0.00115   0.00115   1.85105
    A1        1.56788   0.00746   0.00000  -0.04119  -0.04119   1.52669
         Item               Value     Threshold  Converged?
 Maximum Force            0.063014     0.000450     NO 
 RMS     Force            0.036639     0.000300     NO 
 Maximum Displacement     0.031874     0.001800     NO 
 RMS     Displacement     0.029005     0.001200     NO 
 Predicted change in Energy= 2.153811D-03
 GradGradGradGradGradGradGradGradGradGradGradGradGradGradGradGradGradGrad

                          Input orientation:                          
 ---------------------------------------------------------------------
 Center     Atomic      Atomic             Coordinates (Angstroms)
 Number     Number       Type             X           Y           Z
 ---------------------------------------------------------------------
      1          8           0        3.469873   -4.803091    2.493532
      2         17           0        4.465412   -2.936619    2.367950
      3          1           0        3.984072   -4.973409    3.309667
 ---------------------------------------------------------------------
                    Distance matrix (angstroms):
                    1          2          3
     1  O    0.000000
     2  Cl   2.119100   0.000000
     3  H    0.979533   2.295002   0.000000
 Stoichiometry    ClHO
 Framework group  CS[SG(ClHO)]
 Deg. of freedom     3
 Full point group                 CS      NOp   2
 Largest Abelian subgroup         CS      NOp   2
 Largest concise Abelian subgroup C1      NOp   1
                         Standard orientation:                         
 ---------------------------------------------------------------------
 Center     Atomic      Atomic             Coordinates (Angstroms)
 Number     Number       Type             X           Y           Z
 ---------------------------------------------------------------------
      1          8           0        0.037638    1.387227   -0.000000
      2         17           0        0.037638   -0.731874    0.000000
      3          1           0       -0.940943    1.344039    0.000000
 ---------------------------------------------------------------------
 Rotational constants (GHZ):         555.7176206           9.8537516           9.6820731
 Standard basis: SVP (5D, 7F)
 There are    29 symmetry adapted cartesian basis functions of A'  symmetry.
 There are    10 symmetry adapted cartesian basis functions of A"  symmetry.
 There are    27 symmetry adapted basis functions of A'  symmetry.
 There are    10 symmetry adapted basis functions of A"  symmetry.
    37 basis functions,    69 primitive gaussians,    39 cartesian basis functions
    13 alpha electrons       13 beta electrons
       nuclear repulsion energy        42.2033326061 Hartrees.
 NAtoms=    3 NActive=    3 NUniq=    3 SFac= 1.00D+00 NAtFMM=   60 NAOKFM=F Big=F
 Integral buffers will be    131072 words long.
 Raffenetti 2 integral format.
 Two-electron integral symmetry is turned on.
 Nuclear repulsion after empirical dispersion term =       42.2017018219 Hartrees.
 One-electron integrals computed using PRISM.
 NBasis=    37 RedAO= T EigKep=  5.02D-02  NBF=    27    10
 NBsUse=    37 1.00D-06 EigRej= -1.00D+00 NBFU=    27    10
 Initial guess from the checkpoint file:  "/tmp/Gau-24274.chk"
 B after Tr=     0.000000    0.000000    0.000000
         Rot=    1.000000    0.000000    0.000000   -0.000518 Ang=  -0.06 deg.
 Initial guess orbital symmetries:
       Occupied  (A') (A') (A') (A') (A') (A") (A') (A') (A') (A')
                 (A") (A') (A")
       Virtual   (A') (A') (A') (A') (A') (A") (A') (A') (A") (A')
                 (A") (A') (A') (A") (A') (A') (A") (A') (A') (A")
                 (A') (A') (A") (A')
 ExpMin= 1.22D-01 ExpMax= 1.04D+04 ExpMxC= 1.57D+03 IAcc=2 IRadAn=         4 AccDes= 0.00D+00
 Harris functional with IExCor=  402 and IRadAn=       4 diagonalized for initial guess.
 HarFok:  IExCor=  402 AccDes= 0.00D+00 IRadAn=         4 IDoV= 1 UseB2=F ITyADJ=14
 ICtDFT=  3500011 ScaDFX=  1.000000  1.000000  1.000000  1.000000
 FoFCou: FMM=F IPFlag=           0 FMFlag=      100000 FMFlg1=           0
         NFxFlg=           0 DoJE=T BraDBF=F KetDBF=T FulRan=T
         wScrn=  0.000000 ICntrl=       500 IOpCl=  0 I1Cent=   200000004 NGrid=           0
         NMat0=    1 NMatS0=      1 NMatT0=    0 NMatD0=    1 NMtDS0=    0 NMtDT0=    0
 Petite list used in FoFCou.
 Keep R1 ints in memory in symmetry-blocked form, NReq=7153137.
 Requested convergence on RMS density matrix=1.00D-08 within 128 cycles.
 Requested convergence on MAX density matrix=1.00D-06.
 Requested convergence on             energy=1.00D-06.
 No special actions if energy rises.
 Integral accuracy reduced to 1.0D-05 until final iterations.
 Initial convergence to 1.0D-05 achieved.  Increase integral accuracy.
 SCF Done:  E(RB3LYP) =  -535.726054500     A.U. after   12 cycles
            NFock= 12  Conv=0.43D-08     -V/T= 2.0032
 Calling FoFJK, ICntrl=      2127 FMM=F ISym2X=1 I1Cent= 0 IOpClX= 0 NMat=1 NMatS=1 NMatT=0.
 ***** Axes restored to original set *****
 -------------------------------------------------------------------
 Center     Atomic                   Forces (Hartrees/Bohr)
 Number     Number              X              Y              Z
 -------------------------------------------------------------------
      1        8           0.034402881    0.059908493   -0.000773881
      2       17          -0.030854211   -0.054389055    0.001206757
      3        1          -0.003548670   -0.005519437   -0.000432876
 -------------------------------------------------------------------
 Cartesian Forces:  Max     0.059908493 RMS     0.031141322

 GradGradGradGradGradGradGradGradGradGradGradGradGradGradGradGradGradGrad
 Berny optimization.
 FormGI is forming the generalized inverse of G from B-inverse, IUseBI=4.
 Internal  Forces:  Max     0.062471741 RMS     0.036728783
 Search for a saddle point.
 Step number   4 out of a maximum of  100
 All quantities printed in internal units (Hartrees-Bohrs-Radians)
 Swapping is turned off.
 Update second derivatives using D2CorX and points    1    2    3    4
 The second derivative matrix:
                          R1        R2        A1
           R1           0.01846
           R2          -0.01072   0.54740
           A1           0.02532  -0.00215   0.12583
 ITU=  0  0  0  0
     Eigenvalues ---    0.01260   0.13145   0.54763
 Eigenvectors required to have negative eigenvalues:
                          R1        A1        R2
   1                    0.97581  -0.21783   0.01869
 RFO step:  Lambda0=7.019638797D-02 Lambda=-2.90181286D-05.
 Linear search not attempted -- option 19 set.
 Iteration  1 RMS(Cart)=  0.01262089 RMS(Int)=  0.00012453
 Iteration  2 RMS(Cart)=  0.00009298 RMS(Int)=  0.00000000
 Iteration  3 RMS(Cart)=  0.00000000 RMS(Int)=  0.00000000
 ClnCor:  largest displacement from symmetrization is 2.66D-15 for atom     3.
 Variable       Old X    -DE/DX   Delta X   Delta X   Delta X     New X
                                 (Linear)    (Quad)   (Total)
    R1        4.00452  -0.06247   0.00000   0.01126   0.01126   4.01578
    R2        1.85105  -0.00126   0.00000   0.00002   0.00002   1.85107
    A1        1.52669   0.01195   0.00000  -0.01773  -0.01773   1.50896
         Item               Value     Threshold  Converged?
 Maximum Force            0.062472     0.000450     NO 
 RMS     Force            0.036729     0.000300     NO 
 Maximum Displacement     0.014184     0.001800     NO 
 RMS     Displacement     0.012648     0.001200     NO 
 Predicted change in Energy= 9.313377D-04
 GradGradGradGradGradGradGradGradGradGradGradGradGradGradGradGradGradGrad

                          Input orientation:                          
 ---------------------------------------------------------------------
 Center     Atomic      Atomic             Coordinates (Angstroms)
 Number     Number       Type             X           Y           Z
 ---------------------------------------------------------------------
      1          8           0        3.465852   -4.808911    2.492703
      2         17           0        4.466819   -2.938305    2.371132
      3          1           0        3.986686   -4.965903    3.307314
 ---------------------------------------------------------------------
                    Distance matrix (angstroms):
                    1          2          3
     1  O    0.000000
     2  Cl   2.125060   0.000000
     3  H    0.979543   2.284321   0.000000
 Stoichiometry    ClHO
 Framework group  CS[SG(ClHO)]
 Deg. of freedom     3
 Full point group                 CS      NOp   2
 Largest Abelian subgroup         CS      NOp   2
 Largest concise Abelian subgroup C1      NOp   1
                         Standard orientation:                         
 ---------------------------------------------------------------------
 Center     Atomic      Atomic             Coordinates (Angstroms)
 Number     Number       Type             X           Y           Z
 ---------------------------------------------------------------------
      1          8           0        0.037603    1.391791   -0.000000
      2         17           0        0.037603   -0.733270    0.000000
      3          1           0       -0.940069    1.331259   -0.000000
 ---------------------------------------------------------------------
 Rotational constants (GHZ):         556.2227908           9.8078754           9.6379298
 Standard basis: SVP (5D, 7F)
 There are    29 symmetry adapted cartesian basis functions of A'  symmetry.
 There are    10 symmetry adapted cartesian basis functions of A"  symmetry.
 There are    27 symmetry adapted basis functions of A'  symmetry.
 There are    10 symmetry adapted basis functions of A"  symmetry.
    37 basis functions,    69 primitive gaussians,    39 cartesian basis functions
    13 alpha electrons       13 beta electrons
       nuclear repulsion energy        42.1263646482 Hartrees.
 NAtoms=    3 NActive=    3 NUniq=    3 SFac= 1.00D+00 NAtFMM=   60 NAOKFM=F Big=F
 Integral buffers will be    131072 words long.
 Raffenetti 2 integral format.
 Two-electron integral symmetry is turned on.
 Nuclear repulsion after empirical dispersion term =       42.1247303225 Hartrees.
 One-electron integrals computed using PRISM.
 NBasis=    37 RedAO= T EigKep=  5.03D-02  NBF=    27    10
 NBsUse=    37 1.00D-06 EigRej= -1.00D+00 NBFU=    27    10
 Initial guess from the checkpoint file:  "/tmp/Gau-24274.chk"
 B after Tr=    -0.000000    0.000000    0.000000
         Rot=    1.000000    0.000000    0.000000   -0.000207 Ang=  -0.02 deg.
 Initial guess orbital symmetries:
       Occupied  (A') (A') (A') (A') (A') (A") (A') (A') (A') (A')
                 (A") (A') (A")
       Virtual   (A') (A') (A') (A') (A') (A") (A') (A') (A") (A')
                 (A") (A') (A') (A") (A') (A') (A") (A') (A') (A")
                 (A') (A') (A") (A')
 Keep R1 ints in memory in symmetry-blocked form, NReq=7153137.
 Requested convergence on RMS density matrix=1.00D-08 within 128 cycles.
 Requested convergence on MAX density matrix=1.00D-06.
 Requested convergence on             energy=1.00D-06.
 No special actions if energy rises.
 SCF Done:  E(RB3LYP) =  -535.725123678     A.U. after    9 cycles
            NFock=  9  Conv=0.70D-08     -V/T= 2.0032
 Calling FoFJK, ICntrl=      2127 FMM=F ISym2X=1 I1Cent= 0 IOpClX= 0 NMat=1 NMatS=1 NMatT=0.
 ***** Axes restored to original set *****
 -------------------------------------------------------------------
 Center     Atomic                   Forces (Hartrees/Bohr)
 Number     Number              X              Y              Z
 -------------------------------------------------------------------
      1        8           0.034954585    0.060478267   -0.000482659
      2       17          -0.031027530   -0.053994939    0.000670162
      3        1          -0.003927056   -0.006483328   -0.000187504
 -------------------------------------------------------------------
 Cartesian Forces:  Max     0.060478267 RMS     0.031297457

 GradGradGradGradGradGradGradGradGradGradGradGradGradGradGradGradGradGrad
 Berny optimization.
 FormGI is forming the generalized inverse of G from B-inverse, IUseBI=4.
 Internal  Forces:  Max     0.062182849 RMS     0.036788451
 Search for a saddle point.
 Step number   5 out of a maximum of  100
 All quantities printed in internal units (Hartrees-Bohrs-Radians)
 Swapping is turned off.
 Update second derivatives using D2CorX and points    2    3    4    5
 The second derivative matrix:
                          R1        R2        A1
           R1           0.01672
           R2          -0.01033   0.54739
           A1           0.02690  -0.00265   0.12488
 ITU=  0  0  0  0
     Eigenvalues ---    0.01023   0.13115   0.54762
 Eigenvectors required to have negative eigenvalues:
                          R1        A1        R2
   1                    0.97350  -0.22802   0.01760
 RFO step:  Lambda0=6.903638155D-02 Lambda=-3.64360876D-06.
 Linear search not attempted -- option 19 set.
 Iteration  1 RMS(Cart)=  0.00453538 RMS(Int)=  0.00001600
 Iteration  2 RMS(Cart)=  0.00001177 RMS(Int)=  0.00000000
 Iteration  3 RMS(Cart)=  0.00000000 RMS(Int)=  0.00000000
 ClnCor:  largest displacement from symmetrization is 1.99D-15 for atom     1.
 Variable       Old X    -DE/DX   Delta X   Delta X   Delta X     New X
                                 (Linear)    (Quad)   (Total)
    R1        4.01578  -0.06218   0.00000   0.00393   0.00393   4.01971
    R2        1.85107  -0.00120   0.00000  -0.00011  -0.00011   1.85096
    A1        1.50896   0.01386   0.00000  -0.00632  -0.00632   1.50264
         Item               Value     Threshold  Converged?
 Maximum Force            0.062183     0.000450     NO 
 RMS     Force            0.036788     0.000300     NO 
 Maximum Displacement     0.005128     0.001800     NO 
 RMS     Displacement     0.004538     0.001200     NO 
 Predicted change in Energy= 3.337875D-04
 GradGradGradGradGradGradGradGradGradGradGradGradGradGradGradGradGradGrad

                          Input orientation:                          
 ---------------------------------------------------------------------
 Center     Atomic      Atomic             Coordinates (Angstroms)
 Number     Number       Type             X           Y           Z
 ---------------------------------------------------------------------
      1          8           0        3.464449   -4.810987    2.492451
      2         17           0        4.467310   -2.938942    2.372280
      3          1           0        3.987598   -4.963190    3.306419
 ---------------------------------------------------------------------
                    Distance matrix (angstroms):
                    1          2          3
     1  O    0.000000
     2  Cl   2.127139   0.000000
     3  H    0.979487   2.280421   0.000000
 Stoichiometry    ClHO
 Framework group  CS[SG(ClHO)]
 Deg. of freedom     3
 Full point group                 CS      NOp   2
 Largest Abelian subgroup         CS      NOp   2
 Largest concise Abelian subgroup C1      NOp   1
                         Standard orientation:                         
 ---------------------------------------------------------------------
 Center     Atomic      Atomic             Coordinates (Angstroms)
 Number     Number       Type             X           Y           Z
 ---------------------------------------------------------------------
      1          8           0        0.037585    1.393388    0.000000
      2         17           0        0.037585   -0.733752   -0.000000
      3          1           0       -0.939627    1.326679    0.000000
 ---------------------------------------------------------------------
 Rotational constants (GHZ):         556.5589524           9.7919903           9.6226906
 Standard basis: SVP (5D, 7F)
 There are    29 symmetry adapted cartesian basis functions of A'  symmetry.
 There are    10 symmetry adapted cartesian basis functions of A"  symmetry.
 There are    27 symmetry adapted basis functions of A'  symmetry.
 There are    10 symmetry adapted basis functions of A"  symmetry.
    37 basis functions,    69 primitive gaussians,    39 cartesian basis functions
    13 alpha electrons       13 beta electrons
       nuclear repulsion energy        42.1002473787 Hartrees.
 NAtoms=    3 NActive=    3 NUniq=    3 SFac= 1.00D+00 NAtFMM=   60 NAOKFM=F Big=F
 Integral buffers will be    131072 words long.
 Raffenetti 2 integral format.
 Two-electron integral symmetry is turned on.
 Nuclear repulsion after empirical dispersion term =       42.0986117965 Hartrees.
 One-electron integrals computed using PRISM.
 NBasis=    37 RedAO= T EigKep=  5.03D-02  NBF=    27    10
 NBsUse=    37 1.00D-06 EigRej= -1.00D+00 NBFU=    27    10
 Initial guess from the checkpoint file:  "/tmp/Gau-24274.chk"
 B after Tr=    -0.000000    0.000000    0.000000
         Rot=    1.000000   -0.000000    0.000000   -0.000071 Ang=  -0.01 deg.
 Initial guess orbital symmetries:
       Occupied  (A') (A') (A') (A') (A') (A") (A') (A') (A') (A')
                 (A") (A') (A")
       Virtual   (A') (A') (A') (A') (A') (A") (A') (A') (A") (A')
                 (A") (A') (A') (A") (A') (A') (A") (A') (A') (A")
                 (A') (A') (A") (A')
 Keep R1 ints in memory in symmetry-blocked form, NReq=7153137.
 Requested convergence on RMS density matrix=1.00D-08 within 128 cycles.
 Requested convergence on MAX density matrix=1.00D-06.
 Requested convergence on             energy=1.00D-06.
 No special actions if energy rises.
 SCF Done:  E(RB3LYP) =  -535.724789917     A.U. after    8 cycles
            NFock=  8  Conv=0.89D-08     -V/T= 2.0032
 Calling FoFJK, ICntrl=      2127 FMM=F ISym2X=1 I1Cent= 0 IOpClX= 0 NMat=1 NMatS=1 NMatT=0.
 ***** Axes restored to original set *****
 -------------------------------------------------------------------
 Center     Atomic                   Forces (Hartrees/Bohr)
 Number     Number              X              Y              Z
 -------------------------------------------------------------------
      1        8           0.035110744    0.060683762   -0.000434573
      2       17          -0.031084202   -0.053848107    0.000480754
      3        1          -0.004026542   -0.006835655   -0.000046181
 -------------------------------------------------------------------
 Cartesian Forces:  Max     0.060683762 RMS     0.031348384

 GradGradGradGradGradGradGradGradGradGradGradGradGradGradGradGradGradGrad
 Berny optimization.
 FormGI is forming the generalized inverse of G from B-inverse, IUseBI=4.
 Internal  Forces:  Max     0.062072553 RMS     0.036812868
 Search for a saddle point.
 Step number   6 out of a maximum of  100
 All quantities printed in internal units (Hartrees-Bohrs-Radians)
 Swapping is turned off.
 Second derivative matrix not updated -- analytic derivatives used.
 The second derivative matrix:
                          R1        R2        A1
           R1           0.01672
           R2          -0.01033   0.54739
           A1           0.02690  -0.00265   0.12488
 ITU=  0  0  0  0
     Eigenvalues ---    0.01023   0.13115   0.54762
 Eigenvectors required to have negative eigenvalues:
                          R1        A1        R2
   1                    0.97350  -0.22802   0.01760
 RFO step:  Lambda0=6.908230770D-02 Lambda= 0.00000000D+00.
 Linear search not attempted -- option 19 set.
 Iteration  1 RMS(Cart)=  0.00002178 RMS(Int)=  0.00000000
 Iteration  2 RMS(Cart)=  0.00000000 RMS(Int)=  0.00000000
 ClnCor:  largest displacement from symmetrization is 1.78D-15 for atom     3.
 Variable       Old X    -DE/DX   Delta X   Delta X   Delta X     New X
                                 (Linear)    (Quad)   (Total)
    R1        4.01971  -0.06207   0.00000   0.00002   0.00002   4.01973
    R2        1.85096  -0.00113   0.00000  -0.00001  -0.00001   1.85095
    A1        1.50264   0.01454   0.00000  -0.00003  -0.00003   1.50261
         Item               Value     Threshold  Converged?
 Maximum Force            0.062073     0.000450     NO 
 RMS     Force            0.036813     0.000300     NO 
 Maximum Displacement     0.000025     0.001800     YES
 RMS     Displacement     0.000022     0.001200     YES
 Predicted change in Energy= 1.619420D-06
 GradGradGradGradGradGradGradGradGradGradGradGradGradGradGradGradGradGrad

                          Input orientation:                          
 ---------------------------------------------------------------------
 Center     Atomic      Atomic             Coordinates (Angstroms)
 Number     Number       Type             X           Y           Z
 ---------------------------------------------------------------------
      1          8           0        3.464444   -4.810997    2.492451
      2         17           0        4.467312   -2.938945    2.372285
      3          1           0        3.987601   -4.963177    3.306413
 ---------------------------------------------------------------------
                    Distance matrix (angstroms):
                    1          2          3
     1  O    0.000000
     2  Cl   2.127150   0.000000
     3  H    0.979482   2.280402   0.000000
 Stoichiometry    ClHO
 Framework group  CS[SG(ClHO)]
 Deg. of freedom     3
 Full point group                 CS      NOp   2
 Largest Abelian subgroup         CS      NOp   2
 Largest concise Abelian subgroup C1      NOp   1
                         Standard orientation:                         
 ---------------------------------------------------------------------
 Center     Atomic      Atomic             Coordinates (Angstroms)
 Number     Number       Type             X           Y           Z
 ---------------------------------------------------------------------
      1          8           0        0.037585    1.393396    0.000000
      2         17           0        0.037585   -0.733754   -0.000000
      3          1           0       -0.939621    1.326659   -0.000000
 ---------------------------------------------------------------------
 Rotational constants (GHZ):         556.5652318           9.7919106           9.6226155
 Standard basis: SVP (5D, 7F)
 There are    29 symmetry adapted cartesian basis functions of A'  symmetry.
 There are    10 symmetry adapted cartesian basis functions of A"  symmetry.
 There are    27 symmetry adapted basis functions of A'  symmetry.
 There are    10 symmetry adapted basis functions of A"  symmetry.
    37 basis functions,    69 primitive gaussians,    39 cartesian basis functions
    13 alpha electrons       13 beta electrons
       nuclear repulsion energy        42.1001355104 Hartrees.
 NAtoms=    3 NActive=    3 NUniq=    3 SFac= 1.00D+00 NAtFMM=   60 NAOKFM=F Big=F
 Integral buffers will be    131072 words long.
 Raffenetti 2 integral format.
 Two-electron integral symmetry is turned on.
 Nuclear repulsion after empirical dispersion term =       42.0984999223 Hartrees.
 One-electron integrals computed using PRISM.
 NBasis=    37 RedAO= T EigKep=  5.03D-02  NBF=    27    10
 NBsUse=    37 1.00D-06 EigRej= -1.00D+00 NBFU=    27    10
 Initial guess from the checkpoint file:  "/tmp/Gau-24274.chk"
 B after Tr=     0.000000   -0.000000   -0.000000
         Rot=    1.000000    0.000000   -0.000000   -0.000000 Ang=  -0.00 deg.
 Initial guess orbital symmetries:
       Occupied  (A') (A') (A') (A') (A') (A") (A') (A') (A') (A')
                 (A") (A') (A")
       Virtual   (A') (A') (A') (A') (A') (A") (A') (A') (A") (A')
                 (A") (A') (A') (A") (A') (A') (A") (A') (A') (A")
                 (A') (A') (A") (A')
 Keep R1 ints in memory in symmetry-blocked form, NReq=7153137.
 Requested convergence on RMS density matrix=1.00D-08 within 128 cycles.
 Requested convergence on MAX density matrix=1.00D-06.
 Requested convergence on             energy=1.00D-06.
 No special actions if energy rises.
 SCF Done:  E(RB3LYP) =  -535.724788298     A.U. after    5 cycles
            NFock=  5  Conv=0.54D-08     -V/T= 2.0032
 Calling FoFJK, ICntrl=      2127 FMM=F ISym2X=1 I1Cent= 0 IOpClX= 0 NMat=1 NMatS=1 NMatT=0.
 ***** Axes restored to original set *****
 -------------------------------------------------------------------
 Center     Atomic                   Forces (Hartrees/Bohr)
 Number     Number              X              Y              Z
 -------------------------------------------------------------------
      1        8           0.035109423    0.060685378   -0.000437585
      2       17          -0.031084455   -0.053847502    0.000479948
      3        1          -0.004024969   -0.006837876   -0.000042363
 -------------------------------------------------------------------
 Cartesian Forces:  Max     0.060685378 RMS     0.031348514

 GradGradGradGradGradGradGradGradGradGradGradGradGradGradGradGradGradGrad
 Berny optimization.
 FormGI is forming the generalized inverse of G from B-inverse, IUseBI=4.
 Internal  Forces:  Max     0.062072106 RMS     0.036812980
 Search for a saddle point.
 Step number   7 out of a maximum of  100
 All quantities printed in internal units (Hartrees-Bohrs-Radians)
 Swapping is turned off.
 Update second derivatives using D2CorX and points    4    5    7
 The second derivative matrix:
                          R1        R2        A1
           R1           0.01602
           R2          -0.00998   0.54737
           A1           0.02757  -0.00320   0.12455
 ITU=  0  0  0  0
     Eigenvalues ---    0.00927   0.13108   0.54759
 Eigenvectors required to have negative eigenvalues:
                          R1        A1        R2
   1                    0.97255  -0.23210   0.01665
 RFO step:  Lambda0=6.856327221D-02 Lambda=-5.54240495D-07.
 Linear search not attempted -- option 19 set.
 Iteration  1 RMS(Cart)=  0.00177526 RMS(Int)=  0.00000244
 Iteration  2 RMS(Cart)=  0.00000178 RMS(Int)=  0.00000000
 Iteration  3 RMS(Cart)=  0.00000000 RMS(Int)=  0.00000000
 ClnCor:  largest displacement from symmetrization is 2.18D-15 for atom     1.
 Variable       Old X    -DE/DX   Delta X   Delta X   Delta X     New X
                                 (Linear)    (Quad)   (Total)
    R1        4.01973  -0.06207   0.00000   0.00152   0.00152   4.02125
    R2        1.85095  -0.00112   0.00000  -0.00010  -0.00010   1.85086
    A1        1.50261   0.01454   0.00000  -0.00246  -0.00246   1.50014
         Item               Value     Threshold  Converged?
 Maximum Force            0.062072     0.000450     NO 
 RMS     Force            0.036813     0.000300     NO 
 Maximum Displacement     0.002014     0.001800     NO 
 RMS     Displacement     0.001776     0.001200     NO 
 Predicted change in Energy= 1.303121D-04
 GradGradGradGradGradGradGradGradGradGradGradGradGradGradGradGradGradGrad

                          Input orientation:                          
 ---------------------------------------------------------------------
 Center     Atomic      Atomic             Coordinates (Angstroms)
 Number     Number       Type             X           Y           Z
 ---------------------------------------------------------------------
      1          8           0        3.463906   -4.811809    2.492367
      2         17           0        4.467502   -2.939199    2.372735
      3          1           0        3.987948   -4.962111    3.306047
 ---------------------------------------------------------------------
                    Distance matrix (angstroms):
                    1          2          3
     1  O    0.000000
     2  Cl   2.127954   0.000000
     3  H    0.979431   2.278863   0.000000
 Stoichiometry    ClHO
 Framework group  CS[SG(ClHO)]
 Deg. of freedom     3
 Full point group                 CS      NOp   2
 Largest Abelian subgroup         CS      NOp   2
 Largest concise Abelian subgroup C1      NOp   1
                         Standard orientation:                         
 ---------------------------------------------------------------------
 Center     Atomic      Atomic             Coordinates (Angstroms)
 Number     Number       Type             X           Y           Z
 ---------------------------------------------------------------------
      1          8           0        0.037576    1.394014   -0.000000
      2         17           0        0.037576   -0.733940    0.000000
      3          1           0       -0.939411    1.324873   -0.000000
 ---------------------------------------------------------------------
 Rotational constants (GHZ):         556.7420376           9.7857832           9.6167508
 Standard basis: SVP (5D, 7F)
 There are    29 symmetry adapted cartesian basis functions of A'  symmetry.
 There are    10 symmetry adapted cartesian basis functions of A"  symmetry.
 There are    27 symmetry adapted basis functions of A'  symmetry.
 There are    10 symmetry adapted basis functions of A"  symmetry.
    37 basis functions,    69 primitive gaussians,    39 cartesian basis functions
    13 alpha electrons       13 beta electrons
       nuclear repulsion energy        42.0902432480 Hartrees.
 NAtoms=    3 NActive=    3 NUniq=    3 SFac= 1.00D+00 NAtFMM=   60 NAOKFM=F Big=F
 Integral buffers will be    131072 words long.
 Raffenetti 2 integral format.
 Two-electron integral symmetry is turned on.
 Nuclear repulsion after empirical dispersion term =       42.0886071720 Hartrees.
 One-electron integrals computed using PRISM.
 NBasis=    37 RedAO= T EigKep=  5.03D-02  NBF=    27    10
 NBsUse=    37 1.00D-06 EigRej= -1.00D+00 NBFU=    27    10
 Initial guess from the checkpoint file:  "/tmp/Gau-24274.chk"
 B after Tr=     0.000000    0.000000    0.000000
         Rot=    1.000000   -0.000000    0.000000   -0.000027 Ang=  -0.00 deg.
 Initial guess orbital symmetries:
       Occupied  (A') (A') (A') (A') (A') (A") (A') (A') (A') (A')
                 (A") (A') (A")
       Virtual   (A') (A') (A') (A') (A') (A") (A') (A') (A") (A')
                 (A") (A') (A') (A") (A') (A') (A") (A') (A') (A")
                 (A') (A') (A") (A')
 Keep R1 ints in memory in symmetry-blocked form, NReq=7153137.
 Requested convergence on RMS density matrix=1.00D-08 within 128 cycles.
 Requested convergence on MAX density matrix=1.00D-06.
 Requested convergence on             energy=1.00D-06.
 No special actions if energy rises.
 SCF Done:  E(RB3LYP) =  -535.724657987     A.U. after    8 cycles
            NFock=  8  Conv=0.36D-08     -V/T= 2.0032
 Calling FoFJK, ICntrl=      2127 FMM=F ISym2X=1 I1Cent= 0 IOpClX= 0 NMat=1 NMatS=1 NMatT=0.
 ***** Axes restored to original set *****
 -------------------------------------------------------------------
 Center     Atomic                   Forces (Hartrees/Bohr)
 Number     Number              X              Y              Z
 -------------------------------------------------------------------
      1        8           0.035154161    0.060768965   -0.000443004
      2       17          -0.031105786   -0.053789687    0.000406676
      3        1          -0.004048375   -0.006979279    0.000036328
 -------------------------------------------------------------------
 Cartesian Forces:  Max     0.060768965 RMS     0.031367083

 GradGradGradGradGradGradGradGradGradGradGradGradGradGradGradGradGradGrad
 Berny optimization.
 FormGI is forming the generalized inverse of G from B-inverse, IUseBI=4.
 Internal  Forces:  Max     0.062028337 RMS     0.036822902
 Search for a saddle point.
 Step number   8 out of a maximum of  100
 All quantities printed in internal units (Hartrees-Bohrs-Radians)
 Swapping is turned off.
 Update second derivatives using D2CorX and points    5    6    7    8
 The second derivative matrix:
                          R1        R2        A1
           R1           0.01571
           R2          -0.00949   0.54732
           A1           0.02783  -0.00397   0.12453
 ITU=  0  0  0  0
     Eigenvalues ---    0.00888   0.13114   0.54753
 Eigenvectors required to have negative eigenvalues:
                          R1        A1        R2
   1                    0.97226  -0.23340   0.01542
 RFO step:  Lambda0=6.837107487D-02 Lambda=-6.81769657D-08.
 Linear search not attempted -- option 19 set.
 Iteration  1 RMS(Cart)=  0.00058423 RMS(Int)=  0.00000026
 Iteration  2 RMS(Cart)=  0.00000019 RMS(Int)=  0.00000000
 ClnCor:  largest displacement from symmetrization is 3.66D-15 for atom     1.
 Variable       Old X    -DE/DX   Delta X   Delta X   Delta X     New X
                                 (Linear)    (Quad)   (Total)
    R1        4.02125  -0.06203   0.00000   0.00050   0.00050   4.02175
    R2        1.85086  -0.00106   0.00000  -0.00015  -0.00015   1.85071
    A1        1.50014   0.01480   0.00000  -0.00079  -0.00079   1.49935
         Item               Value     Threshold  Converged?
 Maximum Force            0.062028     0.000450     NO 
 RMS     Force            0.036823     0.000300     NO 
 Maximum Displacement     0.000667     0.001800     YES
 RMS     Displacement     0.000584     0.001200     YES
 Predicted change in Energy= 4.282538D-05
 GradGradGradGradGradGradGradGradGradGradGradGradGradGradGradGradGradGrad

                          Input orientation:                          
 ---------------------------------------------------------------------
 Center     Atomic      Atomic             Coordinates (Angstroms)
 Number     Number       Type             X           Y           Z
 ---------------------------------------------------------------------
      1          8           0        3.463746   -4.812082    2.492365
      2         17           0        4.467566   -2.939279    2.372882
      3          1           0        3.988045   -4.961758    3.305902
 ---------------------------------------------------------------------
                    Distance matrix (angstroms):
                    1          2          3
     1  O    0.000000
     2  Cl   2.128220   0.000000
     3  H    0.979354   2.278352   0.000000
 Stoichiometry    ClHO
 Framework group  CS[SG(ClHO)]
 Deg. of freedom     3
 Full point group                 CS      NOp   2
 Largest Abelian subgroup         CS      NOp   2
 Largest concise Abelian subgroup C1      NOp   1
                         Standard orientation:                         
 ---------------------------------------------------------------------
 Center     Atomic      Atomic             Coordinates (Angstroms)
 Number     Number       Type             X           Y           Z
 ---------------------------------------------------------------------
      1          8           0        0.037571    1.394217   -0.000000
      2         17           0        0.037571   -0.734003    0.000000
      3          1           0       -0.939284    1.324308   -0.000000
 ---------------------------------------------------------------------
 Rotational constants (GHZ):         556.8695085           9.7837416           9.6148171
 Standard basis: SVP (5D, 7F)
 There are    29 symmetry adapted cartesian basis functions of A'  symmetry.
 There are    10 symmetry adapted cartesian basis functions of A"  symmetry.
 There are    27 symmetry adapted basis functions of A'  symmetry.
 There are    10 symmetry adapted basis functions of A"  symmetry.
    37 basis functions,    69 primitive gaussians,    39 cartesian basis functions
    13 alpha electrons       13 beta electrons
       nuclear repulsion energy        42.0872383736 Hartrees.
 NAtoms=    3 NActive=    3 NUniq=    3 SFac= 1.00D+00 NAtFMM=   60 NAOKFM=F Big=F
 Integral buffers will be    131072 words long.
 Raffenetti 2 integral format.
 Two-electron integral symmetry is turned on.
 Nuclear repulsion after empirical dispersion term =       42.0856021393 Hartrees.
 One-electron integrals computed using PRISM.
 NBasis=    37 RedAO= T EigKep=  5.03D-02  NBF=    27    10
 NBsUse=    37 1.00D-06 EigRej= -1.00D+00 NBFU=    27    10
 Initial guess from the checkpoint file:  "/tmp/Gau-24274.chk"
 B after Tr=     0.000000   -0.000000   -0.000000
         Rot=    1.000000   -0.000000    0.000000   -0.000007 Ang=  -0.00 deg.
 Initial guess orbital symmetries:
       Occupied  (A') (A') (A') (A') (A') (A") (A') (A') (A') (A')
                 (A") (A') (A")
       Virtual   (A') (A') (A') (A') (A') (A") (A') (A') (A") (A')
                 (A") (A') (A') (A") (A') (A') (A") (A') (A') (A")
                 (A') (A') (A") (A')
 Keep R1 ints in memory in symmetry-blocked form, NReq=7153137.
 Requested convergence on RMS density matrix=1.00D-08 within 128 cycles.
 Requested convergence on MAX density matrix=1.00D-06.
 Requested convergence on             energy=1.00D-06.
 No special actions if energy rises.
 SCF Done:  E(RB3LYP) =  -535.724615162     A.U. after    7 cycles
            NFock=  7  Conv=0.69D-08     -V/T= 2.0032
 Calling FoFJK, ICntrl=      2127 FMM=F ISym2X=1 I1Cent= 0 IOpClX= 0 NMat=1 NMatS=1 NMatT=0.
 ***** Axes restored to original set *****
 -------------------------------------------------------------------
 Center     Atomic                   Forces (Hartrees/Bohr)
 Number     Number              X              Y              Z
 -------------------------------------------------------------------
      1        8           0.035138219    0.060805673   -0.000492716
      2       17          -0.031112572   -0.053772015    0.000383926
      3        1          -0.004025646   -0.007033659    0.000108790
 -------------------------------------------------------------------
 Cartesian Forces:  Max     0.060805673 RMS     0.031371477

 GradGradGradGradGradGradGradGradGradGradGradGradGradGradGradGradGradGrad
 Berny optimization.
 FormGI is forming the generalized inverse of G from B-inverse, IUseBI=4.
 Internal  Forces:  Max     0.062015045 RMS     0.036826108
 Search for a saddle point.
 Step number   9 out of a maximum of  100
 All quantities printed in internal units (Hartrees-Bohrs-Radians)
 Swapping is turned off.
 Update second derivatives using D2CorX and points    6    7    9
 The second derivative matrix:
                          R1        R2        A1
           R1           0.01559
           R2          -0.00861   0.54710
           A1           0.02785  -0.00538   0.12478
 ITU=  0  0  0  0
     Eigenvalues ---    0.00880   0.13134   0.54732
 Eigenvectors required to have negative eigenvalues:
                          R1        A1        R2
   1                    0.97242  -0.23286   0.01323
 RFO step:  Lambda0=6.833738951D-02 Lambda=-4.79849502D-08.
 Linear search not attempted -- option 19 set.
 Iteration  1 RMS(Cart)=  0.00028715 RMS(Int)=  0.00000001
 Iteration  2 RMS(Cart)=  0.00000001 RMS(Int)=  0.00000000
 ClnCor:  largest displacement from symmetrization is 4.07D-15 for atom     1.
 Variable       Old X    -DE/DX   Delta X   Delta X   Delta X     New X
                                 (Linear)    (Quad)   (Total)
    R1        4.02175  -0.06202   0.00000   0.00042   0.00042   4.02218
    R2        1.85071  -0.00099   0.00000  -0.00026  -0.00026   1.85045
    A1        1.49935   0.01489   0.00000   0.00017   0.00017   1.49952
         Item               Value     Threshold  Converged?
 Maximum Force            0.062015     0.000450     NO 
 RMS     Force            0.036826     0.000300     NO 
 Maximum Displacement     0.000329     0.001800     YES
 RMS     Displacement     0.000287     0.001200     YES
 Predicted change in Energy= 2.361015D-05
 GradGradGradGradGradGradGradGradGradGradGradGradGradGradGradGradGradGrad

                          Input orientation:                          
 ---------------------------------------------------------------------
 Center     Atomic      Atomic             Coordinates (Angstroms)
 Number     Number       Type             X           Y           Z
 ---------------------------------------------------------------------
      1          8           0        3.463775   -4.812140    2.492449
      2         17           0        4.467620   -2.939105    2.372819
      3          1           0        3.987962   -4.961874    3.305882
 ---------------------------------------------------------------------
                    Distance matrix (angstroms):
                    1          2          3
     1  O    0.000000
     2  Cl   2.128445   0.000000
     3  H    0.979217   2.278656   0.000000
 Stoichiometry    ClHO
 Framework group  CS[SG(ClHO)]
 Deg. of freedom     3
 Full point group                 CS      NOp   2
 Largest Abelian subgroup         CS      NOp   2
 Largest concise Abelian subgroup C1      NOp   1
                         Standard orientation:                         
 ---------------------------------------------------------------------
 Center     Atomic      Atomic             Coordinates (Angstroms)
 Number     Number       Type             X           Y           Z
 ---------------------------------------------------------------------
      1          8           0        0.037567    1.394357    0.000000
      2         17           0        0.037567   -0.734087   -0.000000
      3          1           0       -0.939164    1.324620    0.000000
 ---------------------------------------------------------------------
 Rotational constants (GHZ):         557.0173779           9.7815859           9.6127793
 Standard basis: SVP (5D, 7F)
 There are    29 symmetry adapted cartesian basis functions of A'  symmetry.
 There are    10 symmetry adapted cartesian basis functions of A"  symmetry.
 There are    27 symmetry adapted basis functions of A'  symmetry.
 There are    10 symmetry adapted basis functions of A"  symmetry.
    37 basis functions,    69 primitive gaussians,    39 cartesian basis functions
    13 alpha electrons       13 beta electrons
       nuclear repulsion energy        42.0837486834 Hartrees.
 NAtoms=    3 NActive=    3 NUniq=    3 SFac= 1.00D+00 NAtFMM=   60 NAOKFM=F Big=F
 Integral buffers will be    131072 words long.
 Raffenetti 2 integral format.
 Two-electron integral symmetry is turned on.
 Nuclear repulsion after empirical dispersion term =       42.0821123887 Hartrees.
 One-electron integrals computed using PRISM.
 NBasis=    37 RedAO= T EigKep=  5.03D-02  NBF=    27    10
 NBsUse=    37 1.00D-06 EigRej= -1.00D+00 NBFU=    27    10
 Initial guess from the checkpoint file:  "/tmp/Gau-24274.chk"
 B after Tr=    -0.000000    0.000000    0.000000
         Rot=    1.000000   -0.000000    0.000000    0.000009 Ang=   0.00 deg.
 Initial guess orbital symmetries:
       Occupied  (A') (A') (A') (A') (A') (A") (A') (A') (A') (A')
                 (A") (A') (A")
       Virtual   (A') (A') (A') (A') (A') (A") (A') (A') (A") (A')
                 (A") (A') (A') (A") (A') (A') (A") (A') (A') (A")
                 (A') (A') (A") (A')
 Keep R1 ints in memory in symmetry-blocked form, NReq=7153137.
 Requested convergence on RMS density matrix=1.00D-08 within 128 cycles.
 Requested convergence on MAX density matrix=1.00D-06.
 Requested convergence on             energy=1.00D-06.
 No special actions if energy rises.
 SCF Done:  E(RB3LYP) =  -535.724591553     A.U. after    6 cycles
            NFock=  6  Conv=0.84D-08     -V/T= 2.0032
 Calling FoFJK, ICntrl=      2127 FMM=F ISym2X=1 I1Cent= 0 IOpClX= 0 NMat=1 NMatS=1 NMatT=0.
 ***** Axes restored to original set *****
 -------------------------------------------------------------------
 Center     Atomic                   Forces (Hartrees/Bohr)
 Number     Number              X              Y              Z
 -------------------------------------------------------------------
      1        8           0.035062500    0.060826822   -0.000609843
      2       17          -0.031113298   -0.053789003    0.000396155
      3        1          -0.003949202   -0.007037819    0.000213688
 -------------------------------------------------------------------
 Cartesian Forces:  Max     0.060826822 RMS     0.031369265

 GradGradGradGradGradGradGradGradGradGradGradGradGradGradGradGradGradGrad
 Berny optimization.
 FormGI is forming the generalized inverse of G from B-inverse, IUseBI=4.
 Internal  Forces:  Max     0.062030748 RMS     0.036829253
 Search for a saddle point.
 Step number  10 out of a maximum of  100
 All quantities printed in internal units (Hartrees-Bohrs-Radians)
 Swapping is turned off.
 Update second derivatives using D2CorX and points    7   10
 The second derivative matrix:
                          R1        R2        A1
           R1           0.01637
           R2          -0.00610   0.54604
           A1           0.02733  -0.00864   0.12484
 ITU=  0  0  0  0
     Eigenvalues ---    0.00984   0.13111   0.54630
 Eigenvectors required to have negative eigenvalues:
                          R1        A1        R2
   1                    0.97301  -0.23067   0.00735
 RFO step:  Lambda0=6.889879467D-02 Lambda=-4.24625392D-07.
 Linear search not attempted -- option 19 set.
 Iteration  1 RMS(Cart)=  0.00107057 RMS(Int)=  0.00000014
 Iteration  2 RMS(Cart)=  0.00000012 RMS(Int)=  0.00000000
 ClnCor:  largest displacement from symmetrization is 1.99D-15 for atom     1.
 Variable       Old X    -DE/DX   Delta X   Delta X   Delta X     New X
                                 (Linear)    (Quad)   (Total)
    R1        4.02218  -0.06203   0.00000   0.00147   0.00147   4.02365
    R2        1.85045  -0.00086   0.00000  -0.00069  -0.00069   1.84976
    A1        1.49952   0.01485   0.00000   0.00073   0.00073   1.50024
         Item               Value     Threshold  Converged?
 Maximum Force            0.062031     0.000450     NO 
 RMS     Force            0.036829     0.000300     NO 
 Maximum Displacement     0.001235     0.001800     YES
 RMS     Displacement     0.001071     0.001200     YES
 Predicted change in Energy= 8.003287D-05
 GradGradGradGradGradGradGradGradGradGradGradGradGradGradGradGradGradGrad

                          Input orientation:                          
 ---------------------------------------------------------------------
 Center     Atomic      Atomic             Coordinates (Angstroms)
 Number     Number       Type             X           Y           Z
 ---------------------------------------------------------------------
      1          8           0        3.463878   -4.812292    2.492704
      2         17           0        4.467807   -2.938451    2.372560
      3          1           0        3.987673   -4.962375    3.305886
 ---------------------------------------------------------------------
                    Distance matrix (angstroms):
                    1          2          3
     1  O    0.000000
     2  Cl   2.129222   0.000000
     3  H    0.978852   2.279889   0.000000
 Stoichiometry    ClHO
 Framework group  CS[SG(ClHO)]
 Deg. of freedom     3
 Full point group                 CS      NOp   2
 Largest Abelian subgroup         CS      NOp   2
 Largest concise Abelian subgroup C1      NOp   1
                         Standard orientation:                         
 ---------------------------------------------------------------------
 Center     Atomic      Atomic             Coordinates (Angstroms)
 Number     Number       Type             X           Y           Z
 ---------------------------------------------------------------------
      1          8           0        0.037554    1.394838   -0.000000
      2         17           0        0.037554   -0.734385    0.000000
      3          1           0       -0.938862    1.325835   -0.000000
[...]
           R1           0.01823
           R2          -0.00869   0.49908
           A1           0.02281   0.00679   0.12746
 ITU=  0  0  0  0
     Eigenvalues ---    0.01346   0.13197   0.49935
 Eigenvectors required to have negative eigenvalues:
                          R1        A1        R2
   1                    0.98013  -0.19732   0.02031
 RFO step:  Lambda0=7.172539728D-02 Lambda= 0.00000000D+00.
 Linear search not attempted -- option 19 set.
 Iteration  1 RMS(Cart)=  0.00000001 RMS(Int)=  0.00000000
 ClnCor:  largest displacement from symmetrization is 1.99D-15 for atom     3.
 Variable       Old X    -DE/DX   Delta X   Delta X   Delta X     New X
                                 (Linear)    (Quad)   (Total)
    R1        4.10058  -0.06336   0.00000   0.00000   0.00000   4.10058
    R2        1.85215  -0.00131   0.00000  -0.00000  -0.00000   1.85215
    A1        1.49757   0.01276   0.00000   0.00000   0.00000   1.49757
         Item               Value     Threshold  Converged?
 Maximum Force            0.063364     0.000450     NO 
 RMS     Force            0.037325     0.000300     NO 
 Maximum Displacement     0.000000     0.001800     YES
 RMS     Displacement     0.000000     0.001200     YES
 Predicted change in Energy= 8.928231D-10
 GradGradGradGradGradGradGradGradGradGradGradGradGradGradGradGradGradGrad

                          Input orientation:                          
 ---------------------------------------------------------------------
 Center     Atomic      Atomic             Coordinates (Angstroms)
 Number     Number       Type             X           Y           Z
 ---------------------------------------------------------------------
      1          8           0        3.457525   -4.826252    2.495097
      2         17           0        4.477463   -2.915228    2.367365
      3          1           0        3.984369   -4.971639    3.308686
 ---------------------------------------------------------------------
                    Distance matrix (angstroms):
                    1          2          3
     1  O    0.000000
     2  Cl   2.169932   0.000000
     3  H    0.980117   2.314747   0.000000
 Stoichiometry    ClHO
 Framework group  CS[SG(ClHO)]
 Deg. of freedom     3
 Full point group                 CS      NOp   2
 Largest Abelian subgroup         CS      NOp   2
 Largest concise Abelian subgroup C1      NOp   1
                         Standard orientation:                         
 ---------------------------------------------------------------------
 Center     Atomic      Atomic             Coordinates (Angstroms)
 Number     Number       Type             X           Y           Z
 ---------------------------------------------------------------------
      1          8           0        0.037596    1.421559   -0.000000
      2         17           0        0.037596   -0.748372   -0.000000
      3          1           0       -0.939894    1.349857    0.000000
 ---------------------------------------------------------------------
 Rotational constants (GHZ):         556.1195462           9.4116717           9.2550410
 Standard basis: SVP (5D, 7F)
 There are    29 symmetry adapted cartesian basis functions of A'  symmetry.
 There are    10 symmetry adapted cartesian basis functions of A"  symmetry.
 There are    27 symmetry adapted basis functions of A'  symmetry.
 There are    10 symmetry adapted basis functions of A"  symmetry.
    37 basis functions,    69 primitive gaussians,    39 cartesian basis functions
    13 alpha electrons       13 beta electrons
       nuclear repulsion energy        41.3717573202 Hartrees.
 NAtoms=    3 NActive=    3 NUniq=    3 SFac= 1.00D+00 NAtFMM=   60 NAOKFM=F Big=F
 Integral buffers will be    131072 words long.
 Raffenetti 2 integral format.
 Two-electron integral symmetry is turned on.
 Nuclear repulsion after empirical dispersion term =       41.3701061499 Hartrees.
 One-electron integrals computed using PRISM.
 NBasis=    37 RedAO= T EigKep=  5.12D-02  NBF=    27    10
 NBsUse=    37 1.00D-06 EigRej= -1.00D+00 NBFU=    27    10
 Initial guess from the checkpoint file:  "/tmp/Gau-24274.chk"
 B after Tr=    -0.000000   -0.000000   -0.000000
         Rot=    1.000000    0.000000   -0.000000    0.000000 Ang=   0.00 deg.
 Initial guess orbital symmetries:
       Occupied  (A') (A') (A') (A') (A') (A") (A') (A') (A') (A')
                 (A") (A') (A")
       Virtual   (A') (A') (A') (A') (A') (A") (A') (A') (A") (A')
                 (A") (A') (A') (A") (A') (A') (A") (A') (A') (A")
                 (A') (A') (A") (A')
 Keep R1 ints in memory in symmetry-blocked form, NReq=7153137.
 Requested convergence on RMS density matrix=1.00D-08 within 128 cycles.
 Requested convergence on MAX density matrix=1.00D-06.
 Requested convergence on             energy=1.00D-06.
 No special actions if energy rises.
 SCF Done:  E(RB3LYP) =  -535.719643863     A.U. after    1 cycles
            NFock=  1  Conv=0.34D-08     -V/T= 2.0032
 Calling FoFJK, ICntrl=      2127 FMM=F ISym2X=1 I1Cent= 0 IOpClX= 0 NMat=1 NMatS=1 NMatT=0.
 ***** Axes restored to original set *****
 -------------------------------------------------------------------
 Center     Atomic                   Forces (Hartrees/Bohr)
 Number     Number              X              Y              Z
 -------------------------------------------------------------------
      1        8           0.035032363    0.061102108   -0.000863725
      2       17          -0.031351902   -0.055139738    0.001127872
      3        1          -0.003680460   -0.005962369   -0.000264147
 -------------------------------------------------------------------
 Cartesian Forces:  Max     0.061102108 RMS     0.031684644

 GradGradGradGradGradGradGradGradGradGradGradGradGradGradGradGradGradGrad
 Berny optimization.
 Internal  Forces:  Max     0.063363688 RMS     0.037324736
 Search for a saddle point.
 Step number  99 out of a maximum of  100
 All quantities printed in internal units (Hartrees-Bohrs-Radians)
 Swapping is turned off.
 Update second derivatives using D2CorX and points   99
 The second derivative matrix:
                          R1        R2        A1
           R1           0.01823
           R2          -0.00869   0.49908
           A1           0.02281   0.00679   0.12746
 ITU=  0  0  0  0
     Eigenvalues ---    0.01346   0.13197   0.49935
 Eigenvectors required to have negative eigenvalues:
                          R1        A1        R2
   1                    0.98013  -0.19732   0.02031
 RFO step:  Lambda0=7.172539871D-02 Lambda= 0.00000000D+00.
 Linear search not attempted -- option 19 set.
 Iteration  1 RMS(Cart)=  0.00000002 RMS(Int)=  0.00000000
 ClnCor:  largest displacement from symmetrization is 4.44D-15 for atom     3.
 Variable       Old X    -DE/DX   Delta X   Delta X   Delta X     New X
                                 (Linear)    (Quad)   (Total)
    R1        4.10058  -0.06336   0.00000   0.00000   0.00000   4.10058
    R2        1.85215  -0.00131   0.00000   0.00000   0.00000   1.85215
    A1        1.49757   0.01276   0.00000  -0.00000  -0.00000   1.49757
         Item               Value     Threshold  Converged?
 Maximum Force            0.063364     0.000450     NO 
 RMS     Force            0.037325     0.000300     NO 
 Maximum Displacement     0.000000     0.001800     YES
 RMS     Displacement     0.000000     0.001200     YES
 Predicted change in Energy= 2.904536D-09
 GradGradGradGradGradGradGradGradGradGradGradGradGradGradGradGradGradGrad

                          Input orientation:                          
 ---------------------------------------------------------------------
 Center     Atomic      Atomic             Coordinates (Angstroms)
 Number     Number       Type             X           Y           Z
 ---------------------------------------------------------------------
      1          8           0        3.457525   -4.826252    2.495097
      2         17           0        4.477463   -2.915228    2.367365
      3          1           0        3.984369   -4.971639    3.308686
 ---------------------------------------------------------------------
                    Distance matrix (angstroms):
                    1          2          3
     1  O    0.000000
     2  Cl   2.169932   0.000000
     3  H    0.980117   2.314747   0.000000
 Stoichiometry    ClHO
 Framework group  CS[SG(ClHO)]
 Deg. of freedom     3
 Full point group                 CS      NOp   2
 Largest Abelian subgroup         CS      NOp   2
 Largest concise Abelian subgroup C1      NOp   1
                         Standard orientation:                         
 ---------------------------------------------------------------------
 Center     Atomic      Atomic             Coordinates (Angstroms)
 Number     Number       Type             X           Y           Z
 ---------------------------------------------------------------------
      1          8           0        0.037596    1.421559    0.000000
      2         17           0        0.037596   -0.748372   -0.000000
      3          1           0       -0.939894    1.349857    0.000000
 ---------------------------------------------------------------------
 Rotational constants (GHZ):         556.1195218           9.4116716           9.2550408
 Standard basis: SVP (5D, 7F)
 There are    29 symmetry adapted cartesian basis functions of A'  symmetry.
 There are    10 symmetry adapted cartesian basis functions of A"  symmetry.
 There are    27 symmetry adapted basis functions of A'  symmetry.
 There are    10 symmetry adapted basis functions of A"  symmetry.
    37 basis functions,    69 primitive gaussians,    39 cartesian basis functions
    13 alpha electrons       13 beta electrons
       nuclear repulsion energy        41.3717568891 Hartrees.
 NAtoms=    3 NActive=    3 NUniq=    3 SFac= 1.00D+00 NAtFMM=   60 NAOKFM=F Big=F
 Integral buffers will be    131072 words long.
 Raffenetti 2 integral format.
 Two-electron integral symmetry is turned on.
 Nuclear repulsion after empirical dispersion term =       41.3701057188 Hartrees.
 One-electron integrals computed using PRISM.
 NBasis=    37 RedAO= T EigKep=  5.12D-02  NBF=    27    10
 NBsUse=    37 1.00D-06 EigRej= -1.00D+00 NBFU=    27    10
 Initial guess from the checkpoint file:  "/tmp/Gau-24274.chk"
 B after Tr=    -0.000000    0.000000   -0.000000
         Rot=    1.000000   -0.000000    0.000000   -0.000000 Ang=   0.00 deg.
 Initial guess orbital symmetries:
       Occupied  (A') (A') (A') (A') (A') (A") (A') (A') (A') (A')
                 (A") (A') (A")
       Virtual   (A') (A') (A') (A') (A') (A") (A') (A') (A") (A')
                 (A") (A') (A') (A") (A') (A') (A") (A') (A') (A")
                 (A') (A') (A") (A')
 Keep R1 ints in memory in symmetry-blocked form, NReq=7153137.
 Requested convergence on RMS density matrix=1.00D-08 within 128 cycles.
 Requested convergence on MAX density matrix=1.00D-06.
 Requested convergence on             energy=1.00D-06.
 No special actions if energy rises.
 SCF Done:  E(RB3LYP) =  -535.719643860     A.U. after    2 cycles
            NFock=  2  Conv=0.93D-08     -V/T= 2.0032
 Calling FoFJK, ICntrl=      2127 FMM=F ISym2X=1 I1Cent= 0 IOpClX= 0 NMat=1 NMatS=1 NMatT=0.
 ***** Axes restored to original set *****
 -------------------------------------------------------------------
 Center     Atomic                   Forces (Hartrees/Bohr)
 Number     Number              X              Y              Z
 -------------------------------------------------------------------
      1        8           0.035032383    0.061102102   -0.000863693
      2       17          -0.031351901   -0.055139737    0.001127872
      3        1          -0.003680482   -0.005962365   -0.000264179
 -------------------------------------------------------------------
 Cartesian Forces:  Max     0.061102102 RMS     0.031684645

 GradGradGradGradGradGradGradGradGradGradGradGradGradGradGradGradGradGrad
 Berny optimization.
 Internal  Forces:  Max     0.063363686 RMS     0.037324736
 Search for a saddle point.
 Step number 100 out of a maximum of  100
 All quantities printed in internal units (Hartrees-Bohrs-Radians)
 Swapping is turned off.
 Update second derivatives using D2CorX and points  100
 The second derivative matrix:
                          R1        R2        A1
           R1           0.01823
           R2          -0.00869   0.49908
           A1           0.02281   0.00679   0.12746
 ITU=  0  0  0  0
     Eigenvalues ---    0.01346   0.13197   0.49935
 Eigenvectors required to have negative eigenvalues:
                          R1        A1        R2
   1                    0.98013  -0.19732   0.02031
 RFO step:  Lambda0=7.172539828D-02 Lambda= 0.00000000D+00.
 Linear search not attempted -- option 19 set.
 Iteration  1 RMS(Cart)=  0.00000002 RMS(Int)=  0.00000000
 ClnCor:  largest displacement from symmetrization is 2.18D-15 for atom     1.
 Variable       Old X    -DE/DX   Delta X   Delta X   Delta X     New X
                                 (Linear)    (Quad)   (Total)
    R1        4.10058  -0.06336   0.00000   0.00000   0.00000   4.10058
    R2        1.85215  -0.00131   0.00000  -0.00000  -0.00000   1.85215
    A1        1.49757   0.01276   0.00000   0.00000   0.00000   1.49757
         Item               Value     Threshold  Converged?
 Maximum Force            0.063364     0.000450     NO 
 RMS     Force            0.037325     0.000300     NO 
 Maximum Displacement     0.000000     0.001800     YES
 RMS     Displacement     0.000000     0.001200     YES
 Predicted change in Energy= 2.357659D-09
 Optimization stopped.
    -- Number of steps exceeded,  NStep= 100
    -- Flag reset to prevent archiving.
                           ----------------------------
                           ! Non-Optimized Parameters !
                           ! (Angstroms and Degrees)  !
 --------------------------                            --------------------------
 ! Name  Definition              Value          Derivative Info.                !
 --------------------------------------------------------------------------------
 ! R1    R(1,2)                  2.1699         -DE/DX =   -0.0634              !
 ! R2    R(1,3)                  0.9801         -DE/DX =   -0.0013              !
 ! A1    A(2,1,3)               85.8047         -DE/DX =    0.0128              !
 --------------------------------------------------------------------------------
 GradGradGradGradGradGradGradGradGradGradGradGradGradGradGradGradGradGrad

                          Input orientation:                          
 ---------------------------------------------------------------------
 Center     Atomic      Atomic             Coordinates (Angstroms)
 Number     Number       Type             X           Y           Z
 ---------------------------------------------------------------------
      1          8           0        3.457525   -4.826252    2.495097
      2         17           0        4.477463   -2.915228    2.367365
      3          1           0        3.984369   -4.971639    3.308686
 ---------------------------------------------------------------------
                    Distance matrix (angstroms):
                    1          2          3
     1  O    0.000000
     2  Cl   2.169932   0.000000
     3  H    0.980117   2.314747   0.000000
 Stoichiometry    ClHO
 Framework group  CS[SG(ClHO)]
 Deg. of freedom     3
 Full point group                 CS      NOp   2
 Largest Abelian subgroup         CS      NOp   2
 Largest concise Abelian subgroup C1      NOp   1
                         Standard orientation:                         
 ---------------------------------------------------------------------
 Center     Atomic      Atomic             Coordinates (Angstroms)
 Number     Number       Type             X           Y           Z
 ---------------------------------------------------------------------
      1          8           0        0.037596    1.421559    0.000000
      2         17           0        0.037596   -0.748372   -0.000000
      3          1           0       -0.939894    1.349857    0.000000
 ---------------------------------------------------------------------
 Rotational constants (GHZ):         556.1195218           9.4116716           9.2550408

 **********************************************************************

            Population analysis using the SCF density.

 **********************************************************************

 Orbital symmetries:
       Occupied  (A') (A') (A') (A') (A') (A") (A') (A') (A') (A')
                 (A") (A') (A")
       Virtual   (A') (A') (A') (A') (A') (A") (A') (A') (A") (A')
                 (A") (A') (A') (A") (A') (A') (A") (A') (A') (A")
                 (A') (A') (A") (A')
 The electronic state is 1-A'.
 Alpha  occ. eigenvalues -- -101.54960 -19.22487  -9.49779  -7.27115  -7.25541
 Alpha  occ. eigenvalues --   -7.25516  -0.99307  -0.80509  -0.48026  -0.40709
 Alpha  occ. eigenvalues --   -0.36188  -0.33152  -0.31420
 Alpha virt. eigenvalues --   -0.19231   0.05279   0.46538   0.56318   0.66583
 Alpha virt. eigenvalues --    0.71116   0.71488   0.76257   0.76328   0.82563
 Alpha virt. eigenvalues --    0.82815   0.89263   0.94585   0.96455   1.00873
 Alpha virt. eigenvalues --    1.37474   1.39574   1.43585   2.13595   2.58127
 Alpha virt. eigenvalues --    2.65113   2.90121   2.91935   3.63140
          Condensed to atoms (all electrons):
               1          2          3
     1  O    7.781254   0.145411   0.281468
     2  Cl   0.145411  16.861216  -0.003069
     3  H    0.281468  -0.003069   0.509909
 Mulliken charges:
               1
     1  O   -0.208133
     2  Cl  -0.003558
     3  H    0.211691
 Sum of Mulliken charges =  -0.00000
 Mulliken charges with hydrogens summed into heavy atoms:
               1
     1  O    0.003558
     2  Cl  -0.003558
 Electronic spatial extent (au):  <R**2>=            139.9649
 Charge=             -0.0000 electrons
 Dipole moment (field-independent basis, Debye):
    X=             -1.6738    Y=             -0.0694    Z=              0.0000  Tot=              1.6753
 Quadrupole moment (field-independent basis, Debye-Ang):
   XX=            -16.6649   YY=            -16.2201   ZZ=            -18.8244
   XY=             -2.4656   XZ=              0.0000   YZ=              0.0000
 Traceless Quadrupole moment (field-independent basis, Debye-Ang):
   XX=              0.5716   YY=              1.0164   ZZ=             -1.5879
   XY=             -2.4656   XZ=              0.0000   YZ=              0.0000
 Octapole moment (field-independent basis, Debye-Ang**2):
  XXX=             -2.2274  YYY=              0.5668  ZZZ=              0.0000  XYY=             -3.6776
  XXY=              3.4625  XXZ=              0.0000  XZZ=             -0.2429  YZZ=              0.5198
  YYZ=              0.0000  XYZ=             -0.0000
 Hexadecapole moment (field-independent basis, Debye-Ang**3):
 XXXX=            -17.1288 YYYY=           -112.7127 ZZZZ=            -16.8871 XXXY=             -0.2980
 XXXZ=              0.0000 YYYX=             -3.0197 YYYZ=              0.0000 ZZZX=              0.0000
 ZZZY=             -0.0000 XXYY=            -20.9167 XXZZ=             -5.9870 YYZZ=            -24.5970
 XXYZ=             -0.0000 YYXZ=              0.0000 ZZXY=              0.5740
 N-N= 4.137010571878D+01 E-N=-1.355411707788D+03  KE= 5.340167846428D+02
 Symmetry A'   KE= 4.832629611058D+02
 Symmetry A"   KE= 5.075382353693D+01


 IT IS BETTER TO THINK YOU ARE HALF DRY THAN TO KNOW YOU
 ARE ALL WET.  -- SNOOPY
 Error termination request processed by link 9999.
 Error termination via Lnk1e in /share/apps/g16.a03/g16/l9999.exe at Thu Mar  6 16:40:22 2025.
 Job cpu time:       0 days  0 hours 13 minutes  3.8 seconds.
 Elapsed time:       0 days  0 hours  1 minutes 41.3 seconds.
 File lengths (MBytes):  RWF=      6 Int=      0 D2E=      0 Chk=      1 Scr=      1
