 Entering Gaussian System, Link 0=g16
 Input=ts.gjf
 Output=ts.log
 Initial command:
 /share/apps/g16.a03/g16/l1.exe "/tmp/Gau-8856.inp" -scrdir="/tmp/"
 Entering Link 1 = /share/apps/g16.a03/g16/l1.exe PID=      8857.
  
 Copyright (c) 1988,1990,1992,1993,1995,1998,2003,2009,2016,
            Gaussian, Inc.  All Rights Reserved.
  
 This is part of the Gaussian(R) 16 program.  It is based on
 the Gaussian(R) 09 system (copyright 2009, Gaussian, Inc.),
 the Gaussian(R) 03 system (copyright 2003, Gaussian, Inc.),
 the Gaussian(R) 98 system (copyright 1998, Gaussian, Inc.),
 the Gaussian(R) 94 system (copyright 1995, Gaussian, Inc.),
 the Gaussian 92(TM) system (copyright 1992, Gaussian, Inc.),
 the Gaussian 90(TM) system (copyright 1990, Gaussian, Inc.),
 the Gaussian 88(TM) system (copyright 1988, Gaussian, Inc.),
 the Gaussian 86(TM) system (copyright 1986, Carnegie Mellon
 University), and the Gaussian 82(TM) system (copyright 1983,
 Carnegie Mellon University). Gaussian is a federally registered
 trademark of Gaussian, Inc.
  
 This software contains proprietary and confidential information,
 including trade secrets, belonging to Gaussian, Inc.
  
 This software is provided under written license and may be
 used, copied, transmitted, or stored only in accord with that
 written license.
  
 The following legend is applicable only to US Government
 contracts under FAR:
  
                    RESTRICTED RIGHTS LEGEND
  
 Use, reproduction and disclosure by the US Government is
 subject to restrictions as set forth in subparagraphs (a)
 and (c) of the Commercial Computer Software - Restricted
 Rights clause in FAR 52.227-19.
  
 Gaussian, Inc.
 340 Quinnipiac St., Bldg. 40, Wallingford CT 06492
  
  
 ---------------------------------------------------------------
 Warning -- This program may not be used in any manner that
 competes with the business of Gaussian, Inc. or will provide
 assistance to any competitor of Gaussian, Inc.  The licensee
 of this program is prohibited from giving any competitor of
 Gaussian, Inc. access to this program.  By using this program,
 the user acknowledges that Gaussian, Inc. is engaged in the
 business of creating and licensing software in the field of
 computational chemistry and represents and warrants to the
 licensee that it is not a competitor of Gaussian, Inc. and that
 it will not use this program in any manner prohibited above.
 ---------------------------------------------------------------
  

 Cite this work as:
 Gaussian 16, Revision A.03,
 M. J. Frisch, G. W. Trucks, H. B. Schlegel, G. E. Scuseria, 
 M. A. Robb, J. R. Cheeseman, G. Scalmani, V. Barone, 
 G. A. Petersson, H. Nakatsuji, X. Li, M. Caricato, A. V. Marenich, 
 J. Bloino, B. G. Janesko, R. Gomperts, B. Mennucci, H. P. Hratchian, 
 J. V. Ortiz, A. F. Izmaylov, J. L. Sonnenberg, D. Williams-Young, 
 F. Ding, F. Lipparini, F. Egidi, J. Goings, B. Peng, A. Petrone, 
 T. Henderson, D. Ranasinghe, V. G. Zakrzewski, J. Gao, N. Rega, 
 G. Zheng, W. Liang, M. Hada, M. Ehara, K. Toyota, R. Fukuda, 
 J. Hasegawa, M. Ishida, T. Nakajima, Y. Honda, O. Kitao, H. Nakai, 
 T. Vreven, K. Throssell, J. A. Montgomery, Jr., J. E. Peralta, 
 F. Ogliaro, M. J. Bearpark, J. J. Heyd, E. N. Brothers, K. N. Kudin, 
 V. N. Staroverov, T. A. Keith, R. Kobayashi, J. Normand, 
 K. Raghavachari, A. P. Rendell, J. C. Burant, S. S. Iyengar, 
 J. Tomasi, M. Cossi, J. M. Millam, M. Klene, C. Adamo, R. Cammi, 
 J. W. Ochterski, R. L. Martin, K. Morokuma, O. Farkas, 
 J. B. Foresman, and D. J. Fox, Gaussian, Inc., Wallingford CT, 2016.
 
 ******************************************
 Gaussian 16:  EM64L-G16RevA.03 25-Dec-2016
                 6-Mar-2025 
 ******************************************
 %nproc=8
 Will use up to    8 processors via shared memory.
 %mem=4000MB
 --------------------------------------------------------------------
 #opt=(noeigen,calcfc,ts,recalc=5,maxcyc=200) freq B3LYP/SVP em=GD3BJ
 --------------------------------------------------------------------
 1/5=1,6=200,10=4,11=1,18=20,26=3,38=1,71=5/1,3;
 2/9=110,12=2,17=6,18=5,40=1/2;
 3/5=18,7=101,11=2,25=1,30=1,71=2,74=-5,124=41,140=1/1,2,3;
 4//1;
 5/5=2,38=5/2;
 8/6=4,10=90,11=11/1;
 11/6=1,8=1,9=11,15=111,16=1/1,2,10;
 10/6=1,13=1/2;
 6/7=2,8=2,9=2,10=2,28=1/1;
 7/10=1,18=20,25=1/1,2,3,16;
 1/5=1,6=200,10=4,11=1,18=20,26=3,71=5/3(2);
 2/9=110/2;
 99//99;
 2/9=110/2;
 3/5=18,7=101,11=2,25=1,30=1,71=1,74=-5,124=41/1,2,3;
 4/5=5,16=3,69=1/1;
 5/5=2,38=5/2;
 7//1,2,3,16;
 1/5=1,6=200,11=1,18=20,26=3,71=5/3(-5);
 2/9=110/2;
 6/7=2,8=2,9=2,10=2,19=2,28=1/1;
 99/9=1/99;
 -----------
 ts-1317.gjf
 -----------
 Symbolic Z-matrix:
 Charge =  0 Multiplicity = 1
 O                     5.07481  -4.72889   3.37576 
 Cl                    4.90991  -1.64929   1.90248 
 H                     5.71655  -4.37614   2.74381 
 
 Add virtual bond connecting atoms H3         and Cl2        Dist= 5.60D+00.

 GradGradGradGradGradGradGradGradGradGradGradGradGradGradGradGradGradGrad
 Berny optimization.
 Initialization pass.
                           ----------------------------
                           !    Initial Parameters    !
                           ! (Angstroms and Degrees)  !
 --------------------------                            --------------------------
 ! Name  Definition              Value          Derivative Info.                !
 --------------------------------------------------------------------------------
 ! R1    R(1,3)                  0.9673         calculate D2E/DX2 analytically  !
 ! R2    R(2,3)                  2.9655         calculate D2E/DX2 analytically  !
 ! A1    A(1,3,2)              109.8907         calculate D2E/DX2 analytically  !
 --------------------------------------------------------------------------------
 Trust Radius=3.00D-01 FncErr=1.00D-07 GrdErr=1.00D-06 EigMax=2.50D+02 EigMin=1.00D-04
 Number of steps in this run=    100 maximum allowed number of steps=    100.
 Search for a saddle point of order  1.
 GradGradGradGradGradGradGradGradGradGradGradGradGradGradGradGradGradGrad

                          Input orientation:                          
 ---------------------------------------------------------------------
 Center     Atomic      Atomic             Coordinates (Angstroms)
 Number     Number       Type             X           Y           Z
 ---------------------------------------------------------------------
      1          8           0        5.074808   -4.728894    3.375759
      2         17           0        4.909906   -1.649286    1.902477
      3          1           0        5.716549   -4.376141    2.743809
 ---------------------------------------------------------------------
                    Distance matrix (angstroms):
                    1          2          3
     1  O    0.000000
     2  Cl   3.417856   0.000000
     3  H    0.967279   2.965510   0.000000
 Stoichiometry    ClHO
 Framework group  CS[SG(ClHO)]
 Deg. of freedom     3
 Full point group                 CS      NOp   2
 Largest Abelian subgroup         CS      NOp   2
 Largest concise Abelian subgroup C1      NOp   1
                         Standard orientation:                         
 ---------------------------------------------------------------------
 Center     Atomic      Atomic             Coordinates (Angstroms)
 Number     Number       Type             X           Y           Z
 ---------------------------------------------------------------------
      1          8           0        0.030354    2.256263    0.000000
      2         17           0        0.030354   -1.161593    0.000000
      3          1           0       -0.758840    1.696977   -0.000000
 ---------------------------------------------------------------------
 Rotational constants (GHZ):         841.3295567           3.8468977           3.8293882
 Standard basis: SVP (5D, 7F)
 There are    29 symmetry adapted cartesian basis functions of A'  symmetry.
 There are    10 symmetry adapted cartesian basis functions of A"  symmetry.
 There are    27 symmetry adapted basis functions of A'  symmetry.
 There are    10 symmetry adapted basis functions of A"  symmetry.
    37 basis functions,    69 primitive gaussians,    39 cartesian basis functions
    13 alpha electrons       13 beta electrons
       nuclear repulsion energy        28.4666763177 Hartrees.
 NAtoms=    3 NActive=    3 NUniq=    3 SFac= 1.00D+00 NAtFMM=   60 NAOKFM=F Big=F
 Integral buffers will be    131072 words long.
 Raffenetti 2 integral format.
 Two-electron integral symmetry is turned on.
 Nuclear repulsion after empirical dispersion term =       28.4655130639 Hartrees.
 One-electron integrals computed using PRISM.
 NBasis=    37 RedAO= T EigKep=  5.19D-02  NBF=    27    10
 NBsUse=    37 1.00D-06 EigRej= -1.00D+00 NBFU=    27    10
 ExpMin= 1.22D-01 ExpMax= 1.04D+04 ExpMxC= 1.57D+03 IAcc=3 IRadAn=         5 AccDes= 0.00D+00
 Harris functional with IExCor=  402 and IRadAn=       5 diagonalized for initial guess.
 HarFok:  IExCor=  402 AccDes= 0.00D+00 IRadAn=         5 IDoV= 1 UseB2=F ITyADJ=14
 ICtDFT=  3500011 ScaDFX=  1.000000  1.000000  1.000000  1.000000
 FoFCou: FMM=F IPFlag=           0 FMFlag=      100000 FMFlg1=           0
         NFxFlg=           0 DoJE=T BraDBF=F KetDBF=T FulRan=T
         wScrn=  0.000000 ICntrl=       500 IOpCl=  0 I1Cent=   200000004 NGrid=           0
         NMat0=    1 NMatS0=      1 NMatT0=    0 NMatD0=    1 NMtDS0=    0 NMtDT0=    0
 Petite list used in FoFCou.
 Initial guess orbital symmetries:
       Occupied  (A') (A') (A') (A') (A') (A") (A') (A') (A') (A')
                 (A") (A') (A")
       Virtual   (A') (A') (A') (A') (A') (A") (A') (A") (A') (A')
                 (A') (A") (A') (A") (A') (A') (A") (A') (A') (A")
                 (A') (A") (A') (A')
 The electronic state of the initial guess is 1-A'.
 Keep R1 ints in memory in symmetry-blocked form, NReq=7153137.
 Requested convergence on RMS density matrix=1.00D-08 within 128 cycles.
 Requested convergence on MAX density matrix=1.00D-06.
 Requested convergence on             energy=1.00D-06.
 No special actions if energy rises.
 Integral accuracy reduced to 1.0D-05 until final iterations.
 EnCoef did   100 forward-backward iterations
 EnCoef did   100 forward-backward iterations
 Rare condition: small coef for last iteration:  0.000D+00
 EnCoef did   100 forward-backward iterations
 Initial convergence to 1.0D-05 achieved.  Increase integral accuracy.
 SCF Done:  E(RB3LYP) =  -535.591937166     A.U. after   28 cycles
            NFock= 28  Conv=0.14D-09     -V/T= 2.0026
 DoSCS=F DFT=T ScalE2(SS,OS)=  1.000000  1.000000
 Range of M.O.s used for correlation:     1    37
 NBasis=    37 NAE=    13 NBE=    13 NFC=     0 NFV=     0
 NROrb=     37 NOA=    13 NOB=    13 NVA=    24 NVB=    24

 **** Warning!!: The smallest alpha delta epsilon is  0.29170310D-01

 Symmetrizing basis deriv contribution to polar:
 IMax=3 JMax=2 DiffMx= 0.00D+00
 G2DrvN: will do     4 centers at a time, making    1 passes.
 Calling FoFCou, ICntrl=  3107 FMM=F I1Cent=   0 AccDes= 0.00D+00.
 End of G2Drv F.D. properties file   721 does not exist.
 End of G2Drv F.D. properties file   722 does not exist.
 End of G2Drv F.D. properties file   788 does not exist.
          IDoAtm=111
          Differentiating once with respect to nuclear coordinates.
 Keep R1 ints in memory in symmetry-blocked form, NReq=7127949.
          There are    12 degrees of freedom in the 1st order CPHF.  IDoFFX=6 NUNeed=     0.
      6 vectors produced by pass  0 Test12= 2.60D-15 8.33D-09 XBig12= 5.94D-01 7.52D-01.
 AX will form     6 AO Fock derivatives at one time.
      6 vectors produced by pass  1 Test12= 2.60D-15 8.33D-09 XBig12= 3.97D+00 8.88D-01.
      6 vectors produced by pass  2 Test12= 2.60D-15 8.33D-09 XBig12= 8.03D-02 1.30D-01.
      6 vectors produced by pass  3 Test12= 2.60D-15 8.33D-09 XBig12= 7.33D-04 8.80D-03.
      6 vectors produced by pass  4 Test12= 2.60D-15 8.33D-09 XBig12= 3.72D-06 8.00D-04.
      6 vectors produced by pass  5 Test12= 2.60D-15 8.33D-09 XBig12= 8.44D-09 2.63D-05.
      3 vectors produced by pass  6 Test12= 2.60D-15 8.33D-09 XBig12= 4.90D-12 6.93D-07.
      1 vectors produced by pass  7 Test12= 2.60D-15 8.33D-09 XBig12= 4.19D-15 2.73D-08.
 InvSVY:  IOpt=1 It=  1 EMax= 2.53D-16
 Solved reduced A of dimension    40 with     6 vectors.
 End of Minotr F.D. properties file   721 does not exist.
 End of Minotr F.D. properties file   722 does not exist.
 End of Minotr F.D. properties file   788 does not exist.

 **********************************************************************

            Population analysis using the SCF density.

 **********************************************************************

 Orbital symmetries:
       Occupied  (A') (A') (A') (A") (A') (A') (A') (A') (A') (A')
                 (A") (A') (A')
       Virtual   (A") (A') (A') (A') (A') (A") (A") (A') (A') (A')
                 (A") (A') (A") (A') (A') (A') (A") (A') (A') (A")
                 (A') (A") (A') (A')
 The electronic state is 1-A'.
 Alpha  occ. eigenvalues -- -101.52920 -19.22414  -9.47982  -7.25182  -7.23801
 Alpha  occ. eigenvalues --   -7.23757  -0.98684  -0.79614  -0.47798  -0.34861
 Alpha  occ. eigenvalues --   -0.32539  -0.32523  -0.32109
 Alpha virt. eigenvalues --   -0.29192   0.05324   0.43891   0.56659   0.75044
 Alpha virt. eigenvalues --    0.75353   0.75502   0.77274   0.77695   0.81936
 Alpha virt. eigenvalues --    0.83851   0.85124   0.87045   0.87362   0.97156
 Alpha virt. eigenvalues --    1.03877   1.38244   1.39843   2.16146   2.57242
 Alpha virt. eigenvalues --    2.57516   2.90170   2.92885   3.63283
          Condensed to atoms (all electrons):
               1          2          3
     1  O    7.836829   0.001208   0.285925
     2  Cl   0.001208  17.045531   0.015746
     3  H    0.285925   0.015746   0.511883
 Mulliken charges:
               1
     1  O   -0.123962
     2  Cl  -0.062485
     3  H    0.186446
 Sum of Mulliken charges =   0.00000
 Mulliken charges with hydrogens summed into heavy atoms:
               1
     1  O    0.062485
     2  Cl  -0.062485
 APT charges:
               1
     1  O   -0.051422
     2  Cl  -0.073415
     3  H    0.124837
 Sum of APT charges =   0.00000
 APT charges with hydrogens summed into heavy atoms:
               1
     1  O    0.073415
     2  Cl  -0.073415
 Electronic spatial extent (au):  <R**2>=            280.5642
 Charge=              0.0000 electrons
 Dipole moment (field-independent basis, Debye):
    X=             -1.3794    Y=              0.0139    Z=              0.0000  Tot=              1.3795
 Quadrupole moment (field-independent basis, Debye-Ang):
   XX=            -17.5320   YY=            -21.3236   ZZ=            -16.0139
   XY=             -2.2802   XZ=             -0.0000   YZ=              0.0000
 Traceless Quadrupole moment (field-independent basis, Debye-Ang):
   XX=              0.7578   YY=             -3.0337   ZZ=              2.2760
   XY=             -2.2802   XZ=             -0.0000   YZ=              0.0000
 Octapole moment (field-independent basis, Debye-Ang**2):
  XXX=             -1.3834  YYY=             -4.2543  ZZZ=              0.0000  XYY=             -3.3071
  XXY=              3.4855  XXZ=              0.0000  XZZ=             -0.1311  YZZ=              1.2545
  YYZ=              0.0000  XYZ=              0.0000
 Hexadecapole moment (field-independent basis, Debye-Ang**3):
 XXXX=            -17.7243 YYYY=           -322.3659 ZZZZ=            -13.0769 XXXY=              0.6611
 XXXZ=             -0.0000 YYYX=             -1.8530 YYYZ=              0.0000 ZZZX=             -0.0000
 ZZZY=              0.0000 XXYY=            -48.7707 XXZZ=             -5.2600 YYZZ=            -44.7858
 XXYZ=              0.0000 YYXZ=             -0.0000 ZZXY=              0.5935
 N-N= 2.846551306388D+01 E-N=-1.329963647181D+03  KE= 5.342154335199D+02
 Symmetry A'   KE= 4.884425344451D+02
 Symmetry A"   KE= 4.577289907483D+01
  Exact polarizability:   0.000   0.000   0.000   0.000   0.000   0.000
 Approx polarizability:  12.674  -4.2611243.269  -0.000  -0.000  12.594
 Calling FoFJK, ICntrl=    100147 FMM=F ISym2X=1 I1Cent= 0 IOpClX= 0 NMat=1 NMatS=1 NMatT=0.
 ***** Axes restored to original set *****
 -------------------------------------------------------------------
 Center     Atomic                   Forces (Hartrees/Bohr)
 Number     Number              X              Y              Z
 -------------------------------------------------------------------
      1        8          -0.009125174   -0.002046202    0.007453738
      2       17           0.001224395   -0.006500538    0.002495433
      3        1           0.007900780    0.008546740   -0.009949172
 -------------------------------------------------------------------
 Cartesian Forces:  Max     0.009949172 RMS     0.006891641
 FormGI is forming the generalized inverse of G from B-inverse, IUseBI=4.

 GradGradGradGradGradGradGradGradGradGradGradGradGradGradGradGradGradGrad
 Berny optimization.
 Internal  Forces:  Max     0.011669897 RMS     0.008331469
 Search for a saddle point.
 Step number   1 out of a maximum of  100
 All quantities printed in internal units (Hartrees-Bohrs-Radians)
 Swapping is turned off.
 Second derivative matrix not updated -- analytic derivatives used.
 The second derivative matrix:
                          R1        R2        A1
           R1           0.53563
           R2          -0.00061  -0.00235
           A1           0.00037  -0.00083  -0.00772
 ITU=  0
     Eigenvalues ---   -0.00785  -0.00223   0.53563
 Eigenvectors required to have negative eigenvalues:
                          A1        R2        R1
   1                   -0.98878  -0.14941   0.00051
 RFO step:  Lambda0=3.058394442D-03 Lambda=-7.53012529D-03.
 Linear search not attempted -- option 19 set.
 Maximum step size (   0.300) exceeded in Quadratic search.
    -- Step size scaled by   0.265
 Iteration  1 RMS(Cart)=  0.12523187 RMS(Int)=  0.02806946
 Iteration  2 RMS(Cart)=  0.02458897 RMS(Int)=  0.00001036
 Iteration  3 RMS(Cart)=  0.00001360 RMS(Int)=  0.00000000
 Iteration  4 RMS(Cart)=  0.00000000 RMS(Int)=  0.00000000
 ClnCor:  largest displacement from symmetrization is 2.51D-15 for atom     1.
 Variable       Old X    -DE/DX   Delta X   Delta X   Delta X     New X
                                 (Linear)    (Quad)   (Total)
    R1        1.82789   0.01167   0.00000   0.00530   0.00530   1.83319
    R2        5.60400  -0.00702   0.00000  -0.24113  -0.24113   5.36287
    A1        1.91795  -0.00477   0.00000   0.17840   0.17840   2.09635
         Item               Value     Threshold  Converged?
 Maximum Force            0.011670     0.000450     NO 
 RMS     Force            0.008331     0.000300     NO 
 Maximum Displacement     0.151515     0.001800     NO 
 RMS     Displacement     0.131112     0.001200     NO 
 Predicted change in Energy=-1.049384D-03
 GradGradGradGradGradGradGradGradGradGradGradGradGradGradGradGradGradGrad

                          Input orientation:                          
 ---------------------------------------------------------------------
 Center     Atomic      Atomic             Coordinates (Angstroms)
 Number     Number       Type             X           Y           Z
 ---------------------------------------------------------------------
      1          8           0        5.105795   -4.774552    3.377590
      2         17           0        4.934962   -1.683806    1.902720
      3          1           0        5.660507   -4.295963    2.741735
 ---------------------------------------------------------------------
                    Distance matrix (angstroms):
                    1          2          3
     1  O    0.000000
     2  Cl   3.428868   0.000000
     3  H    0.970085   2.837908   0.000000
 Stoichiometry    ClHO
 Framework group  CS[SG(ClHO)]
 Deg. of freedom     3
 Full point group                 CS      NOp   2
 Largest Abelian subgroup         CS      NOp   2
 Largest concise Abelian subgroup C1      NOp   1
                         Standard orientation:                         
 ---------------------------------------------------------------------
 Center     Atomic      Atomic             Coordinates (Angstroms)
 Number     Number       Type             X           Y           Z
 ---------------------------------------------------------------------
      1          8           0        0.026713    2.268001    0.000000
      2         17           0        0.026713   -1.160867   -0.000000
      3          1           0       -0.667824    1.590740    0.000000
 ---------------------------------------------------------------------
 Rotational constants (GHZ):        1082.9727256           3.8339115           3.8203867
 Standard basis: SVP (5D, 7F)
 There are    29 symmetry adapted cartesian basis functions of A'  symmetry.
 There are    10 symmetry adapted cartesian basis functions of A"  symmetry.
 There are    27 symmetry adapted basis functions of A'  symmetry.
 There are    10 symmetry adapted basis functions of A"  symmetry.
    37 basis functions,    69 primitive gaussians,    39 cartesian basis functions
    13 alpha electrons       13 beta electrons
       nuclear repulsion energy        28.5227905372 Hartrees.
 NAtoms=    3 NActive=    3 NUniq=    3 SFac= 1.00D+00 NAtFMM=   60 NAOKFM=F Big=F
 Integral buffers will be    131072 words long.
 Raffenetti 2 integral format.
 Two-electron integral symmetry is turned on.
 Nuclear repulsion after empirical dispersion term =       28.5215984485 Hartrees.
 One-electron integrals computed using PRISM.
 NBasis=    37 RedAO= T EigKep=  5.04D-02  NBF=    27    10
 NBsUse=    37 1.00D-06 EigRej= -1.00D+00 NBFU=    27    10
 Initial guess from the checkpoint file:  "/tmp/Gau-8857.chk"
 B after Tr=    -0.000000    0.000000    0.000000
         Rot=    1.000000    0.000000   -0.000000    0.000572 Ang=   0.07 deg.
 Initial guess orbital symmetries:
       Occupied  (A') (A') (A') (A") (A') (A') (A') (A') (A') (A')
                 (A") (A') (A')
       Virtual   (A") (A') (A') (A') (A') (A") (A") (A') (A') (A')
                 (A") (A') (A") (A') (A') (A') (A") (A') (A') (A")
                 (A') (A") (A') (A')
 ExpMin= 1.22D-01 ExpMax= 1.04D+04 ExpMxC= 1.57D+03 IAcc=2 IRadAn=         4 AccDes= 0.00D+00
 Harris functional with IExCor=  402 and IRadAn=       4 diagonalized for initial guess.
 HarFok:  IExCor=  402 AccDes= 0.00D+00 IRadAn=         4 IDoV= 1 UseB2=F ITyADJ=14
 ICtDFT=  3500011 ScaDFX=  1.000000  1.000000  1.000000  1.000000
 FoFCou: FMM=F IPFlag=           0 FMFlag=      100000 FMFlg1=           0
         NFxFlg=           0 DoJE=T BraDBF=F KetDBF=T FulRan=T
         wScrn=  0.000000 ICntrl=       500 IOpCl=  0 I1Cent=   200000004 NGrid=           0
         NMat0=    1 NMatS0=      1 NMatT0=    0 NMatD0=    1 NMtDS0=    0 NMtDT0=    0
 Petite list used in FoFCou.
 Keep R1 ints in memory in symmetry-blocked form, NReq=7153137.
 Requested convergence on RMS density matrix=1.00D-08 within 128 cycles.
 Requested convergence on MAX density matrix=1.00D-06.
 Requested convergence on             energy=1.00D-06.
 No special actions if energy rises.
 Integral accuracy reduced to 1.0D-05 until final iterations.
 Initial convergence to 1.0D-05 achieved.  Increase integral accuracy.
 SCF Done:  E(RB3LYP) =  -535.592989581     A.U. after   15 cycles
            NFock= 15  Conv=0.23D-08     -V/T= 2.0026
 Calling FoFJK, ICntrl=      2127 FMM=F ISym2X=1 I1Cent= 0 IOpClX= 0 NMat=1 NMatS=1 NMatT=0.
 ***** Axes restored to original set *****
 -------------------------------------------------------------------
 Center     Atomic                   Forces (Hartrees/Bohr)
 Number     Number              X              Y              Z
 -------------------------------------------------------------------
      1        8          -0.006259971   -0.002812752    0.005840328
      2       17           0.001366420   -0.006892935    0.002598308
      3        1           0.004893551    0.009705686   -0.008438636
 -------------------------------------------------------------------
 Cartesian Forces:  Max     0.009705686 RMS     0.006024919

 GradGradGradGradGradGradGradGradGradGradGradGradGradGradGradGradGradGrad
 Berny optimization.
 FormGI is forming the generalized inverse of G from B-inverse, IUseBI=4.
 Internal  Forces:  Max     0.008794743 RMS     0.006975086
 Search for a saddle point.
 Step number   2 out of a maximum of  100
 All quantities printed in internal units (Hartrees-Bohrs-Radians)
 Swapping is turned off.
 Update second derivatives using D2CorX and points    1    2
 The second derivative matrix:
                          R1        R2        A1
           R1           0.53552
           R2          -0.00013  -0.00244
           A1           0.00003  -0.00081  -0.00771
 ITU=  0  0
     Eigenvalues ---   -0.00783  -0.00232   0.53552
 Eigenvectors required to have negative eigenvalues:
                          A1        R2        R1
   1                   -0.98887  -0.14880   0.00002
 RFO step:  Lambda0=2.176371594D-03 Lambda=-8.15894196D-03.
 Linear search not attempted -- option 19 set.
 Maximum step size (   0.300) exceeded in Quadratic search.
    -- Step size scaled by   0.272
 Iteration  1 RMS(Cart)=  0.11742635 RMS(Int)=  0.03169866
 Iteration  2 RMS(Cart)=  0.02820622 RMS(Int)=  0.00000440
 Iteration  3 RMS(Cart)=  0.00000541 RMS(Int)=  0.00000000
 Iteration  4 RMS(Cart)=  0.00000000 RMS(Int)=  0.00000000
 ClnCor:  largest displacement from symmetrization is 3.20D-15 for atom     1.
 Variable       Old X    -DE/DX   Delta X   Delta X   Delta X     New X
                                 (Linear)    (Quad)   (Total)
    R1        1.83319   0.00879   0.00000   0.00433   0.00433   1.83753
    R2        5.36287  -0.00746   0.00000  -0.24996  -0.24996   5.11291
    A1        2.09635  -0.00360   0.00000   0.16584   0.16584   2.26219
         Item               Value     Threshold  Converged?
 Maximum Force            0.008795     0.000450     NO 
 RMS     Force            0.006975     0.000300     NO 
 Maximum Displacement     0.141379     0.001800     NO 
 RMS     Displacement     0.127939     0.001200     NO 
 Predicted change in Energy=-1.450432D-03
 GradGradGradGradGradGradGradGradGradGradGradGradGradGradGradGradGradGrad

                          Input orientation:                          
 ---------------------------------------------------------------------
 Center     Atomic      Atomic             Coordinates (Angstroms)
 Number     Number       Type             X           Y           Z
 ---------------------------------------------------------------------
      1          8           0        5.139079   -4.804022    3.369458
      2         17           0        4.959921   -1.729151    1.908615
      3          1           0        5.602264   -4.221148    2.743971
 ---------------------------------------------------------------------
                    Distance matrix (angstroms):
                    1          2          3
     1  O    0.000000
     2  Cl   3.408957   0.000000
     3  H    0.972376   2.705637   0.000000
 Stoichiometry    ClHO
 Framework group  CS[SG(ClHO)]
 Deg. of freedom     3
 Full point group                 CS      NOp   2
 Largest Abelian subgroup         CS      NOp   2
 Largest concise Abelian subgroup C1      NOp   1
                         Standard orientation:                         
 ---------------------------------------------------------------------
 Center     Atomic      Atomic             Coordinates (Angstroms)
 Number     Number       Type             X           Y           Z
 ---------------------------------------------------------------------
      1          8           0        0.022867    2.258528    0.000000
      2         17           0        0.022867   -1.150430   -0.000000
      3          1           0       -0.571663    1.489079    0.000000
 ---------------------------------------------------------------------
 Rotational constants (GHZ):        1474.4317462           3.8881012           3.8778752
 Standard basis: SVP (5D, 7F)
 There are    29 symmetry adapted cartesian basis functions of A'  symmetry.
 There are    10 symmetry adapted cartesian basis functions of A"  symmetry.
 There are    27 symmetry adapted basis functions of A'  symmetry.
 There are    10 symmetry adapted basis functions of A"  symmetry.
    37 basis functions,    69 primitive gaussians,    39 cartesian basis functions
    13 alpha electrons       13 beta electrons
       nuclear repulsion energy        28.7900667935 Hartrees.
 NAtoms=    3 NActive=    3 NUniq=    3 SFac= 1.00D+00 NAtFMM=   60 NAOKFM=F Big=F
 Integral buffers will be    131072 words long.
 Raffenetti 2 integral format.
 Two-electron integral symmetry is turned on.
 Nuclear repulsion after empirical dispersion term =       28.7888330255 Hartrees.
 One-electron integrals computed using PRISM.
 NBasis=    37 RedAO= T EigKep=  4.82D-02  NBF=    27    10
 NBsUse=    37 1.00D-06 EigRej= -1.00D+00 NBFU=    27    10
 Initial guess from the checkpoint file:  "/tmp/Gau-8857.chk"
 B after Tr=     0.000000   -0.000000   -0.000000
         Rot=    1.000000   -0.000000    0.000000    0.000666 Ang=   0.08 deg.
 Initial guess orbital symmetries:
       Occupied  (A') (A') (A') (A") (A') (A') (A') (A') (A') (A')
                 (A') (A") (A')
       Virtual   (A") (A') (A') (A') (A') (A") (A") (A') (A') (A')
                 (A") (A') (A") (A') (A') (A') (A") (A') (A') (A")
                 (A') (A") (A') (A')
 ExpMin= 1.22D-01 ExpMax= 1.04D+04 ExpMxC= 1.57D+03 IAcc=2 IRadAn=         4 AccDes= 0.00D+00
 Harris functional with IExCor=  402 and IRadAn=       4 diagonalized for initial guess.
 HarFok:  IExCor=  402 AccDes= 0.00D+00 IRadAn=         4 IDoV= 1 UseB2=F ITyADJ=14
 ICtDFT=  3500011 ScaDFX=  1.000000  1.000000  1.000000  1.000000
 FoFCou: FMM=F IPFlag=           0 FMFlag=      100000 FMFlg1=           0
         NFxFlg=           0 DoJE=T BraDBF=F KetDBF=T FulRan=T
         wScrn=  0.000000 ICntrl=       500 IOpCl=  0 I1Cent=   200000004 NGrid=           0
         NMat0=    1 NMatS0=      1 NMatT0=    0 NMatD0=    1 NMtDS0=    0 NMtDT0=    0
 Petite list used in FoFCou.
 Keep R1 ints in memory in symmetry-blocked form, NReq=7153137.
 Requested convergence on RMS density matrix=1.00D-08 within 128 cycles.
 Requested convergence on MAX density matrix=1.00D-06.
 Requested convergence on             energy=1.00D-06.
 No special actions if energy rises.
 Integral accuracy reduced to 1.0D-05 until final iterations.
 Initial convergence to 1.0D-05 achieved.  Increase integral accuracy.
 SCF Done:  E(RB3LYP) =  -535.594443423     A.U. after   15 cycles
            NFock= 15  Conv=0.64D-08     -V/T= 2.0026
 Calling FoFJK, ICntrl=      2127 FMM=F ISym2X=1 I1Cent= 0 IOpClX= 0 NMat=1 NMatS=1 NMatT=0.
 ***** Axes restored to original set *****
 -------------------------------------------------------------------
 Center     Atomic                   Forces (Hartrees/Bohr)
 Number     Number              X              Y              Z
 -------------------------------------------------------------------
      1        8          -0.004197461   -0.003077210    0.004530668
      2       17           0.001487800   -0.007363099    0.002755782
      3        1           0.002709662    0.010440310   -0.007286450
 -------------------------------------------------------------------
 Cartesian Forces:  Max     0.010440310 RMS     0.005588407

 GradGradGradGradGradGradGradGradGradGradGradGradGradGradGradGradGradGrad
 Berny optimization.
 FormGI is forming the generalized inverse of G from B-inverse, IUseBI=4.
 Internal  Forces:  Max     0.007985794 RMS     0.006218228
 Search for a saddle point.
 Step number   3 out of a maximum of  100
 All quantities printed in internal units (Hartrees-Bohrs-Radians)
 Swapping is turned off.
 Update second derivatives using D2CorX and points    1    2    3
 The second derivative matrix:
                          R1        R2        A1
           R1           0.53542
           R2           0.00076  -0.00266
           A1          -0.00056  -0.00086  -0.00754
 ITU=  0  0  0
     Eigenvalues ---   -0.00769  -0.00251   0.53542
 Eigenvectors required to have negative eigenvalues:
                          A1        R2        R1
   1                   -0.98560  -0.16911  -0.00077
 RFO step:  Lambda0=1.609270466D-03 Lambda=-8.84283095D-03.
 Linear search not attempted -- option 19 set.
 Maximum step size (   0.300) exceeded in Quadratic search.
    -- Step size scaled by   0.277
 Iteration  1 RMS(Cart)=  0.11499759 RMS(Int)=  0.03327525
 Iteration  2 RMS(Cart)=  0.02984768 RMS(Int)=  0.00000058
 Iteration  3 RMS(Cart)=  0.00000070 RMS(Int)=  0.00000000
 ClnCor:  largest displacement from symmetrization is 3.20D-15 for atom     1.
 Variable       Old X    -DE/DX   Delta X   Delta X   Delta X     New X
                                 (Linear)    (Quad)   (Total)
    R1        1.83753   0.00676   0.00000   0.00396   0.00396   1.84148
    R2        5.11291  -0.00799   0.00000  -0.25348  -0.25348   4.85944
    A1        2.26219  -0.00256   0.00000   0.16042   0.16042   2.42261
         Item               Value     Threshold  Converged?
 Maximum Force            0.007986     0.000450     NO 
 RMS     Force            0.006218     0.000300     NO 
 Maximum Displacement     0.132885     0.001800     NO 
 RMS     Displacement     0.128706     0.001200     NO 
 Predicted change in Energy=-1.784540D-03
 GradGradGradGradGradGradGradGradGradGradGradGradGradGradGradGradGradGrad

                          Input orientation:                          
 ---------------------------------------------------------------------
 Center     Atomic      Atomic             Coordinates (Angstroms)
 Number     Number       Type             X           Y           Z
 ---------------------------------------------------------------------
      1          8           0        5.174227   -4.821386    3.353772
      2         17           0        4.984985   -1.782107    1.918364
      3          1           0        5.542051   -4.150828    2.749908
 ---------------------------------------------------------------------
                    Distance matrix (angstroms):
                    1          2          3
     1  O    0.000000
     2  Cl   3.366515   0.000000
     3  H    0.974471   2.571503   0.000000
 Stoichiometry    ClHO
 Framework group  CS[SG(ClHO)]
 Deg. of freedom     3
 Full point group                 CS      NOp   2
 Largest Abelian subgroup         CS      NOp   2
 Largest concise Abelian subgroup C1      NOp   1
                         Standard orientation:                         
 ---------------------------------------------------------------------
 Center     Atomic      Atomic             Coordinates (Angstroms)
 Number     Number       Type             X           Y           Z
 ---------------------------------------------------------------------
      1          8           0        0.018855    2.233574    0.000000
      2         17           0        0.018855   -1.132941   -0.000000
      3          1           0       -0.471385    1.391399    0.000000
 ---------------------------------------------------------------------
 Rotational constants (GHZ):        2164.2309812           3.9945659           3.9872066
 Standard basis: SVP (5D, 7F)
 There are    29 symmetry adapted cartesian basis functions of A'  symmetry.
 There are    10 symmetry adapted cartesian basis functions of A"  symmetry.
 There are    27 symmetry adapted basis functions of A'  symmetry.
 There are    10 symmetry adapted basis functions of A"  symmetry.
    37 basis functions,    69 primitive gaussians,    39 cartesian basis functions
    13 alpha electrons       13 beta electrons
       nuclear repulsion energy        29.2202968709 Hartrees.
 NAtoms=    3 NActive=    3 NUniq=    3 SFac= 1.00D+00 NAtFMM=   60 NAOKFM=F Big=F
 Integral buffers will be    131072 words long.
 Raffenetti 2 integral format.
 Two-electron integral symmetry is turned on.
 Nuclear repulsion after empirical dispersion term =       29.2190144477 Hartrees.
 One-electron integrals computed using PRISM.
 NBasis=    37 RedAO= T EigKep=  4.55D-02  NBF=    27    10
 NBsUse=    37 1.00D-06 EigRej= -1.00D+00 NBFU=    27    10
 Initial guess from the checkpoint file:  "/tmp/Gau-8857.chk"
 B after Tr=    -0.000000    0.000000   -0.000000
         Rot=    1.000000    0.000000   -0.000000    0.000749 Ang=   0.09 deg.
 Initial guess orbital symmetries:
       Occupied  (A') (A') (A') (A") (A') (A') (A') (A') (A') (A')
                 (A') (A") (A')
       Virtual   (A") (A') (A') (A') (A') (A") (A") (A') (A') (A')
                 (A") (A') (A") (A') (A') (A') (A") (A') (A') (A")
                 (A') (A") (A') (A')
 ExpMin= 1.22D-01 ExpMax= 1.04D+04 ExpMxC= 1.57D+03 IAcc=2 IRadAn=         4 AccDes= 0.00D+00
 Harris functional with IExCor=  402 and IRadAn=       4 diagonalized for initial guess.
 HarFok:  IExCor=  402 AccDes= 0.00D+00 IRadAn=         4 IDoV= 1 UseB2=F ITyADJ=14
 ICtDFT=  3500011 ScaDFX=  1.000000  1.000000  1.000000  1.000000
 FoFCou: FMM=F IPFlag=           0 FMFlag=      100000 FMFlg1=           0
         NFxFlg=           0 DoJE=T BraDBF=F KetDBF=T FulRan=T
         wScrn=  0.000000 ICntrl=       500 IOpCl=  0 I1Cent=   200000004 NGrid=           0
         NMat0=    1 NMatS0=      1 NMatT0=    0 NMatD0=    1 NMtDS0=    0 NMtDT0=    0
 Petite list used in FoFCou.
 Keep R1 ints in memory in symmetry-blocked form, NReq=7153137.
 Requested convergence on RMS density matrix=1.00D-08 within 128 cycles.
 Requested convergence on MAX density matrix=1.00D-06.
 Requested convergence on             energy=1.00D-06.
 No special actions if energy rises.
 Integral accuracy reduced to 1.0D-05 until final iterations.
 Problem detected with inexpensive integrals.
 Switching to full accuracy and repeating last cycle.
 EnCoef did   100 forward-backward iterations
 EnCoef did   100 forward-backward iterations
 Rare condition: small coef for last iteration:  0.000D+00
 Rare condition: small coef for last iteration:  0.000D+00
 SCF Done:  E(RB3LYP) =  -535.596223795     A.U. after   17 cycles
            NFock= 17  Conv=0.55D-08     -V/T= 2.0026
 Calling FoFJK, ICntrl=      2127 FMM=F ISym2X=1 I1Cent= 0 IOpClX= 0 NMat=1 NMatS=1 NMatT=0.
 ***** Axes restored to original set *****
 -------------------------------------------------------------------
 Center     Atomic                   Forces (Hartrees/Bohr)
 Number     Number              X              Y              Z
 -------------------------------------------------------------------
      1        8          -0.002673600   -0.003097610    0.003472754
      2       17           0.001561012   -0.007841574    0.002951316
      3        1           0.001112588    0.010939185   -0.006424070
 -------------------------------------------------------------------
 Cartesian Forces:  Max     0.010939185 RMS     0.005412054

 GradGradGradGradGradGradGradGradGradGradGradGradGradGradGradGradGradGrad
 Berny optimization.
 FormGI is forming the generalized inverse of G from B-inverse, IUseBI=4.
 Internal  Forces:  Max     0.008516512 RMS     0.005867260
 Search for a saddle point.
 Step number   4 out of a maximum of  100
 All quantities printed in internal units (Hartrees-Bohrs-Radians)
 Swapping is turned off.
 Update second derivatives using D2CorX and points    2    3    4
 The second derivative matrix:
                          R1        R2        A1
           R1           0.53552
           R2           0.00180  -0.00272
           A1          -0.00125  -0.00103  -0.00729
 ITU=  0  0  0  0
     Eigenvalues ---   -0.00751  -0.00250   0.53553
 Eigenvectors required to have negative eigenvalues:
                          A1        R2        R1
   1                   -0.97779  -0.20956  -0.00155
 RFO step:  Lambda0=1.300491887D-03 Lambda=-9.37329220D-03.
 Linear search not attempted -- option 19 set.
 Maximum step size (   0.300) exceeded in Quadratic search.
    -- Step size scaled by   0.280
 Iteration  1 RMS(Cart)=  0.11763640 RMS(Int)=  0.03229319
 Iteration  2 RMS(Cart)=  0.02939943 RMS(Int)=  0.00000108
 Iteration  3 RMS(Cart)=  0.00000119 RMS(Int)=  0.00000000
 Iteration  4 RMS(Cart)=  0.00000000 RMS(Int)=  0.00000000
 ClnCor:  largest displacement from symmetrization is 2.66D-15 for atom     1.
 Variable       Old X    -DE/DX   Delta X   Delta X   Delta X     New X
                                 (Linear)    (Quad)   (Total)
    R1        1.84148   0.00529   0.00000   0.00393   0.00393   1.84541
    R2        4.85944  -0.00852   0.00000  -0.25127  -0.25127   4.60817
    A1        2.42261  -0.00165   0.00000   0.16385   0.16385   2.58647
         Item               Value     Threshold  Converged?
 Maximum Force            0.008517     0.000450     NO 
 RMS     Force            0.005867     0.000300     NO 
 Maximum Displacement     0.125511     0.001800     NO 
 RMS     Displacement     0.132199     0.001200     NO 
 Predicted change in Energy=-2.030756D-03
 GradGradGradGradGradGradGradGradGradGradGradGradGradGradGradGradGradGrad

                          Input orientation:                          
 ---------------------------------------------------------------------
 Center     Atomic      Atomic             Coordinates (Angstroms)
 Number     Number       Type             X           Y           Z
 ---------------------------------------------------------------------
      1          8           0        5.212183   -4.830167    3.331691
      2         17           0        5.010605   -1.839743    1.930138
      3          1           0        5.478475   -4.084410    2.760215
 ---------------------------------------------------------------------
                    Distance matrix (angstroms):
                    1          2          3
     1  O    0.000000
     2  Cl   3.308719   0.000000
     3  H    0.976549   2.438537   0.000000
 Stoichiometry    ClHO
 Framework group  CS[SG(ClHO)]
 Deg. of freedom     3
 Full point group                 CS      NOp   2
 Largest Abelian subgroup         CS      NOp   2
 Largest concise Abelian subgroup C1      NOp   1
                         Standard orientation:                         
 ---------------------------------------------------------------------
 Center     Atomic      Atomic             Coordinates (Angstroms)
 Number     Number       Type             X           Y           Z
 ---------------------------------------------------------------------
      1          8           0        0.014590    2.198003    0.000000
      2         17           0        0.014590   -1.110716   -0.000000
      3          1           0       -0.364739    1.298137    0.000000
 ---------------------------------------------------------------------
 Rotational constants (GHZ):        3608.8655963           4.1421938           4.1374449
 Standard basis: SVP (5D, 7F)
 There are    29 symmetry adapted cartesian basis functions of A'  symmetry.
 There are    10 symmetry adapted cartesian basis functions of A"  symmetry.
 There are    27 symmetry adapted basis functions of A'  symmetry.
 There are    10 symmetry adapted basis functions of A"  symmetry.
    37 basis functions,    69 primitive gaussians,    39 cartesian basis functions
    13 alpha electrons       13 beta electrons
       nuclear repulsion energy        29.7752275181 Hartrees.
 NAtoms=    3 NActive=    3 NUniq=    3 SFac= 1.00D+00 NAtFMM=   60 NAOKFM=F Big=F
 Integral buffers will be    131072 words long.
 Raffenetti 2 integral format.
 Two-electron integral symmetry is turned on.
 Nuclear repulsion after empirical dispersion term =       29.7738939518 Hartrees.
 One-electron integrals computed using PRISM.
 NBasis=    37 RedAO= T EigKep=  4.24D-02  NBF=    27    10
 NBsUse=    37 1.00D-06 EigRej= -1.00D+00 NBFU=    27    10
 Initial guess from the checkpoint file:  "/tmp/Gau-8857.chk"
 B after Tr=     0.000000    0.000000    0.000000
         Rot=    1.000000    0.000000   -0.000000    0.000867 Ang=   0.10 deg.
 Initial guess orbital symmetries:
       Occupied  (A') (A') (A') (A") (A') (A') (A') (A') (A') (A')
                 (A') (A") (A')
       Virtual   (A") (A') (A') (A') (A') (A") (A") (A') (A') (A')
                 (A") (A') (A") (A') (A') (A') (A") (A') (A') (A")
                 (A') (A") (A') (A')
 ExpMin= 1.22D-01 ExpMax= 1.04D+04 ExpMxC= 1.57D+03 IAcc=2 IRadAn=         4 AccDes= 0.00D+00
 Harris functional with IExCor=  402 and IRadAn=       4 diagonalized for initial guess.
 HarFok:  IExCor=  402 AccDes= 0.00D+00 IRadAn=         4 IDoV= 1 UseB2=F ITyADJ=14
 ICtDFT=  3500011 ScaDFX=  1.000000  1.000000  1.000000  1.000000
 FoFCou: FMM=F IPFlag=           0 FMFlag=      100000 FMFlg1=           0
         NFxFlg=           0 DoJE=T BraDBF=F KetDBF=T FulRan=T
         wScrn=  0.000000 ICntrl=       500 IOpCl=  0 I1Cent=   200000004 NGrid=           0
         NMat0=    1 NMatS0=      1 NMatT0=    0 NMatD0=    1 NMtDS0=    0 NMtDT0=    0
 Petite list used in FoFCou.
 Keep R1 ints in memory in symmetry-blocked form, NReq=7153137.
 Requested convergence on RMS density matrix=1.00D-08 within 128 cycles.
 Requested convergence on MAX density matrix=1.00D-06.
 Requested convergence on             energy=1.00D-06.
 No special actions if energy rises.
 Integral accuracy reduced to 1.0D-05 until final iterations.
 Problem detected with inexpensive integrals.
 Switching to full accuracy and repeating last cycle.
 EnCoef did   100 forward-backward iterations
 EnCoef did   100 forward-backward iterations
 Rare condition: small coef for last iteration:  0.000D+00
 SCF Done:  E(RB3LYP) =  -535.598237790     A.U. after   17 cycles
            NFock= 17  Conv=0.81D-08     -V/T= 2.0026
 Calling FoFJK, ICntrl=      2127 FMM=F ISym2X=1 I1Cent= 0 IOpClX= 0 NMat=1 NMatS=1 NMatT=0.
 ***** Axes restored to original set *****
 -------------------------------------------------------------------
 Center     Atomic                   Forces (Hartrees/Bohr)
 Number     Number              X              Y              Z
 -------------------------------------------------------------------
      1        8          -0.001537780   -0.003068407    0.002661319
      2       17           0.001564653   -0.008216426    0.003142165
      3        1          -0.000026873    0.011284833   -0.005803484
 -------------------------------------------------------------------
 Cartesian Forces:  Max     0.011284833 RMS     0.005371965

 GradGradGradGradGradGradGradGradGradGradGradGradGradGradGradGradGradGrad
 Berny optimization.
 FormGI is forming the generalized inverse of G from B-inverse, IUseBI=4.
 Internal  Forces:  Max     0.008933086 RMS     0.005748875
 Search for a saddle point.
 Step number   5 out of a maximum of  100
 All quantities printed in internal units (Hartrees-Bohrs-Radians)
 Swapping is turned off.
 Update second derivatives using D2CorX and points    3    4    5
 The second derivative matrix:
                          R1        R2        A1
           R1           0.53593
           R2           0.00310  -0.00248
           A1          -0.00214  -0.00134  -0.00699
 ITU=  0  0  0  0
     Eigenvalues ---   -0.00736  -0.00214   0.53595
 Eigenvectors required to have negative eigenvalues:
                          A1        R2        R1
   1                    0.96490   0.26260   0.00230
 RFO step:  Lambda0=1.153901519D-03 Lambda=-9.58185887D-03.
 Linear search not attempted -- option 19 set.
 Maximum step size (   0.300) exceeded in Quadratic search.
    -- Step size scaled by   0.282
 Iteration  1 RMS(Cart)=  0.12403014 RMS(Int)=  0.02918810
 Iteration  2 RMS(Cart)=  0.02726162 RMS(Int)=  0.00000220
 Iteration  3 RMS(Cart)=  0.00000233 RMS(Int)=  0.00000000
 Iteration  4 RMS(Cart)=  0.00000000 RMS(Int)=  0.00000000
 ClnCor:  largest displacement from symmetrization is 2.66D-15 for atom     1.
 Variable       Old X    -DE/DX   Delta X   Delta X   Delta X     New X
                                 (Linear)    (Quad)   (Total)
    R1        1.84541   0.00432   0.00000   0.00430   0.00430   1.84971
    R2        4.60817  -0.00893   0.00000  -0.24440  -0.24440   4.36376
    A1        2.58647  -0.00083   0.00000   0.17392   0.17392   2.76039
         Item               Value     Threshold  Converged?
 Maximum Force            0.008933     0.000450     NO 
 RMS     Force            0.005749     0.000300     NO 
 Maximum Displacement     0.128787     0.001800     NO 
 RMS     Displacement     0.137629     0.001200     NO 
 Predicted change in Energy=-2.180926D-03
 GradGradGradGradGradGradGradGradGradGradGradGradGradGradGradGradGradGrad

                          Input orientation:                          
 ---------------------------------------------------------------------
 Center     Atomic      Atomic             Coordinates (Angstroms)
 Number     Number       Type             X           Y           Z
 ---------------------------------------------------------------------
      1          8           0        5.253687   -4.831527    3.303293
      2         17           0        5.037252   -1.900785    1.942948
      3          1           0        5.410324   -4.022009    2.775803
 ---------------------------------------------------------------------
                    Distance matrix (angstroms):
                    1          2          3
     1  O    0.000000
     2  Cl   3.238307   0.000000
     3  H    0.978826   2.309203   0.000000
 Stoichiometry    ClHO
 Framework group  CS[SG(ClHO)]
 Deg. of freedom     3
 Full point group                 CS      NOp   2
 Largest Abelian subgroup         CS      NOp   2
 Largest concise Abelian subgroup C1      NOp   1
                         Standard orientation:                         
 ---------------------------------------------------------------------
 Center     Atomic      Atomic             Coordinates (Angstroms)
 Number     Number       Type             X           Y           Z
 ---------------------------------------------------------------------
      1          8           0        0.009988    2.153653    0.000000
      2         17           0        0.009988   -1.084654   -0.000000
      3          1           0       -0.249693    1.209901   -0.000000
 ---------------------------------------------------------------------
 Rotational constants (GHZ):        7689.7035690           4.3303713           4.3279341
 Standard basis: SVP (5D, 7F)
 There are    29 symmetry adapted cartesian basis functions of A'  symmetry.
 There are    10 symmetry adapted cartesian basis functions of A"  symmetry.
 There are    27 symmetry adapted basis functions of A'  symmetry.
 There are    10 symmetry adapted basis functions of A"  symmetry.
    37 basis functions,    69 primitive gaussians,    39 cartesian basis functions
    13 alpha electrons       13 beta electrons
       nuclear repulsion energy        30.4447016457 Hartrees.
 NAtoms=    3 NActive=    3 NUniq=    3 SFac= 1.00D+00 NAtFMM=   60 NAOKFM=F Big=F
 Integral buffers will be    131072 words long.
 Raffenetti 2 integral format.
 Two-electron integral symmetry is turned on.
 Nuclear repulsion after empirical dispersion term =       30.4433160620 Hartrees.
 One-electron integrals computed using PRISM.
 NBasis=    37 RedAO= T EigKep=  3.90D-02  NBF=    27    10
 NBsUse=    37 1.00D-06 EigRej= -1.00D+00 NBFU=    27    10
 Initial guess from the checkpoint file:  "/tmp/Gau-8857.chk"
 B after Tr=    -0.000000   -0.000000   -0.000000
         Rot=    0.999999   -0.000000    0.000000    0.001015 Ang=   0.12 deg.
 Initial guess orbital symmetries:
       Occupied  (A') (A') (A') (A") (A') (A') (A') (A') (A') (A')
                 (A') (A") (A')
       Virtual   (A") (A') (A') (A') (A') (A") (A") (A') (A') (A')
                 (A") (A') (A") (A') (A') (A') (A") (A') (A') (A")
                 (A') (A") (A') (A')
 ExpMin= 1.22D-01 ExpMax= 1.04D+04 ExpMxC= 1.57D+03 IAcc=2 IRadAn=         4 AccDes= 0.00D+00
 Harris functional with IExCor=  402 and IRadAn=       4 diagonalized for initial guess.
 HarFok:  IExCor=  402 AccDes= 0.00D+00 IRadAn=         4 IDoV= 1 UseB2=F ITyADJ=14
 ICtDFT=  3500011 ScaDFX=  1.000000  1.000000  1.000000  1.000000
 FoFCou: FMM=F IPFlag=           0 FMFlag=      100000 FMFlg1=           0
         NFxFlg=           0 DoJE=T BraDBF=F KetDBF=T FulRan=T
         wScrn=  0.000000 ICntrl=       500 IOpCl=  0 I1Cent=   200000004 NGrid=           0
         NMat0=    1 NMatS0=      1 NMatT0=    0 NMatD0=    1 NMtDS0=    0 NMtDT0=    0
 Petite list used in FoFCou.
 Keep R1 ints in memory in symmetry-blocked form, NReq=7153137.
 Requested convergence on RMS density matrix=1.00D-08 within 128 cycles.
 Requested convergence on MAX density matrix=1.00D-06.
 Requested convergence on             energy=1.00D-06.
 No special actions if energy rises.
 Integral accuracy reduced to 1.0D-05 until final iterations.
 Problem detected with inexpensive integrals.
 Switching to full accuracy and repeating last cycle.
 EnCoef did   100 forward-backward iterations
 EnCoef did   100 forward-backward iterations
 Rare condition: small coef for last iteration:  0.000D+00
 EnCoef did   100 forward-backward iterations
 EnCoef did     1 forward-backward iterations
 SCF Done:  E(RB3LYP) =  -535.600373144     A.U. after   17 cycles
            NFock= 17  Conv=0.93D-08     -V/T= 2.0026
 Calling FoFJK, ICntrl=      2127 FMM=F ISym2X=1 I1Cent= 0 IOpClX= 0 NMat=1 NMatS=1 NMatT=0.
 ***** Axes restored to original set *****
 -------------------------------------------------------------------
 Center     Atomic                   Forces (Hartrees/Bohr)
 Number     Number              X              Y              Z
 -------------------------------------------------------------------
      1        8          -0.000690038   -0.003078234    0.002072005
      2       17           0.001417354   -0.008275247    0.003275790
      3        1          -0.000727315    0.011353481   -0.005347795
 -------------------------------------------------------------------
 Cartesian Forces:  Max     0.011353481 RMS     0.005307162

 GradGradGradGradGradGradGradGradGradGradGradGradGradGradGradGradGradGrad
 Berny optimization.
 FormGI is forming the generalized inverse of G from B-inverse, IUseBI=4.
 Internal  Forces:  Max     0.009012186 RMS     0.005641912
 Search for a saddle point.
 Step number   6 out of a maximum of  100
 All quantities printed in internal units (Hartrees-Bohrs-Radians)
 Swapping is turned off.
 Second derivative matrix not updated -- analytic derivatives used.
 The second derivative matrix:
                          R1        R2        A1
           R1           0.53593
           R2           0.00310  -0.00248
           A1          -0.00214  -0.00134  -0.00699
 ITU=  0  0  0  0
     Eigenvalues ---   -0.00736  -0.00214   0.53595
 Eigenvectors required to have negative eigenvalues:
                          A1        R2        R1
   1                    0.96490   0.26260   0.00230
 RFO step:  Lambda0=7.944647629D-04 Lambda=-9.81552696D-03.
 Linear search not attempted -- option 19 set.
 Maximum step size (   0.300) exceeded in Quadratic search.
    -- Step size scaled by   0.286
 Iteration  1 RMS(Cart)=  0.12194316 RMS(Int)=  0.03329141
 Iteration  2 RMS(Cart)=  0.03028094 RMS(Int)=  0.00000487
 Iteration  3 RMS(Cart)=  0.00000499 RMS(Int)=  0.00000000
 Iteration  4 RMS(Cart)=  0.00000000 RMS(Int)=  0.00000000
 ClnCor:  largest displacement from symmetrization is 1.99D-15 for atom     1.
 Variable       Old X    -DE/DX   Delta X   Delta X   Delta X     New X
                                 (Linear)    (Quad)   (Total)
    R1        1.84971   0.00377   0.00000   0.00405   0.00405   1.85376
    R2        4.36376  -0.00901   0.00000  -0.25283  -0.25283   4.11093
    A1        2.76039  -0.00019   0.00000   0.16144   0.16144   2.92182
         Item               Value     Threshold  Converged?
 Maximum Force            0.009012     0.000450     NO 
 RMS     Force            0.005642     0.000300     NO 
 Maximum Displacement     0.135521     0.001800     NO 
 RMS     Displacement     0.140640     0.001200     NO 
 Predicted change in Energy=-2.378524D-03
 GradGradGradGradGradGradGradGradGradGradGradGradGradGradGradGradGradGrad

                          Input orientation:                          
 ---------------------------------------------------------------------
 Center     Atomic      Atomic             Coordinates (Angstroms)
 Number     Number       Type             X           Y           Z
 ---------------------------------------------------------------------
      1          8           0        5.291632   -4.818034    3.269726
      2         17           0        5.063247   -1.972499    1.961724
      3          1           0        5.346385   -3.963787    2.790595
 ---------------------------------------------------------------------
                    Distance matrix (angstroms):
                    1          2          3
     1  O    0.000000
     2  Cl   3.140079   0.000000
     3  H    0.980970   2.175413   0.000000
 Stoichiometry    ClHO
 Framework group  CS[SG(ClHO)]
 Deg. of freedom     3
 Full point group                 CS      NOp   2
 Largest Abelian subgroup         CS      NOp   2
 Largest concise Abelian subgroup C1      NOp   1
                         Standard orientation:                         
 ---------------------------------------------------------------------
 Center     Atomic      Atomic             Coordinates (Angstroms)
 Number     Number       Type             X           Y           Z
 ---------------------------------------------------------------------
      1          8           0        0.005698    2.090425   -0.000000
      2         17           0        0.005698   -1.049654    0.000000
      3          1           0       -0.142459    1.120708   -0.000000
 ---------------------------------------------------------------------
 Rotational constants (GHZ):       23595.2117500           4.6110560           4.6101551
 Standard basis: SVP (5D, 7F)
 There are    29 symmetry adapted cartesian basis functions of A'  symmetry.
 There are    10 symmetry adapted cartesian basis functions of A"  symmetry.
 There are    27 symmetry adapted basis functions of A'  symmetry.
 There are    10 symmetry adapted basis functions of A"  symmetry.
    37 basis functions,    69 primitive gaussians,    39 cartesian basis functions
    13 alpha electrons       13 beta electrons
       nuclear repulsion energy        31.3700553904 Hartrees.
 NAtoms=    3 NActive=    3 NUniq=    3 SFac= 1.00D+00 NAtFMM=   60 NAOKFM=F Big=F
 Integral buffers will be    131072 words long.
 Raffenetti 2 integral format.
 Two-electron integral symmetry is turned on.
 Nuclear repulsion after empirical dispersion term =       31.3686088875 Hartrees.
 One-electron integrals computed using PRISM.
 NBasis=    37 RedAO= T EigKep=  3.55D-02  NBF=    27    10
 NBsUse=    37 1.00D-06 EigRej= -1.00D+00 NBFU=    27    10
 Initial guess from the checkpoint file:  "/tmp/Gau-8857.chk"
 B after Tr=     0.000000    0.000000    0.000000
         Rot=    1.000000   -0.000000    0.000000    0.000985 Ang=   0.11 deg.
 Initial guess orbital symmetries:
       Occupied  (A') (A') (A') (A") (A') (A') (A') (A') (A') (A')
                 (A') (A") (A')
       Virtual   (A") (A') (A') (A') (A') (A") (A") (A') (A') (A")
                 (A') (A') (A") (A') (A') (A') (A") (A') (A') (A")
                 (A') (A") (A') (A')
 ExpMin= 1.22D-01 ExpMax= 1.04D+04 ExpMxC= 1.57D+03 IAcc=2 IRadAn=         4 AccDes= 0.00D+00
 Harris functional with IExCor=  402 and IRadAn=       4 diagonalized for initial guess.
 HarFok:  IExCor=  402 AccDes= 0.00D+00 IRadAn=         4 IDoV= 1 UseB2=F ITyADJ=14
 ICtDFT=  3500011 ScaDFX=  1.000000  1.000000  1.000000  1.000000
 FoFCou: FMM=F IPFlag=           0 FMFlag=      100000 FMFlg1=           0
         NFxFlg=           0 DoJE=T BraDBF=F KetDBF=T FulRan=T
         wScrn=  0.000000 ICntrl=       500 IOpCl=  0 I1Cent=   200000004 NGrid=           0
         NMat0=    1 NMatS0=      1 NMatT0=    0 NMatD0=    1 NMtDS0=    0 NMtDT0=    0
 Petite list used in FoFCou.
 Keep R1 ints in memory in symmetry-blocked form, NReq=7153137.
 Requested convergence on RMS density matrix=1.00D-08 within 128 cycles.
 Requested convergence on MAX density matrix=1.00D-06.
 Requested convergence on             energy=1.00D-06.
 No special actions if energy rises.
 Integral accuracy reduced to 1.0D-05 until final iterations.
 Problem detected with inexpensive integrals.
 Switching to full accuracy and repeating last cycle.
 EnCoef did   100 forward-backward iterations
 EnCoef did   100 forward-backward iterations
 Rare condition: small coef for last iteration:  0.000D+00
 EnCoef did   100 forward-backward iterations
 Rare condition: small coef for last iteration:  0.000D+00
 SCF Done:  E(RB3LYP) =  -535.602605536     A.U. after   17 cycles
            NFock= 17  Conv=0.28D-08     -V/T= 2.0026
 Calling FoFJK, ICntrl=      2127 FMM=F ISym2X=1 I1Cent= 0 IOpClX= 0 NMat=1 NMatS=1 NMatT=0.
 ***** Axes restored to original set *****
 -------------------------------------------------------------------
 Center     Atomic                   Forces (Hartrees/Bohr)
 Number     Number              X              Y              Z
 -------------------------------------------------------------------
      1        8          -0.000154735   -0.003700967    0.002017977
      2       17           0.001118912   -0.007616860    0.003145349
      3        1          -0.000964177    0.011317827   -0.005163326
 -------------------------------------------------------------------
 Cartesian Forces:  Max     0.011317827 RMS     0.005192279

 GradGradGradGradGradGradGradGradGradGradGradGradGradGradGradGradGradGrad
 Berny optimization.
 FormGI is forming the generalized inverse of G from B-inverse, IUseBI=4.
 Internal  Forces:  Max     0.008316222 RMS     0.005384386
 Search for a saddle point.
 Step number   7 out of a maximum of  100
 All quantities printed in internal units (Hartrees-Bohrs-Radians)
 Swapping is turned off.
 Update second derivatives using D2CorX and points    5    6    7
 The second derivative matrix:
                          R1        R2        A1
           R1           0.53813
           R2           0.00746   0.00111
           A1          -0.00456  -0.00276  -0.00651
 ITU=  0  0  0  0
     Eigenvalues ---   -0.00742   0.00187   0.53828
 Eigenvectors required to have negative eigenvalues:
                          A1        R2        R1
   1                    0.95222   0.30540   0.00378
 RFO step:  Lambda0=6.844732549D-04 Lambda=-7.17565579D-03.
 Linear search not attempted -- option 19 set.
 Maximum step size (   0.300) exceeded in Quadratic search.
    -- Step size scaled by   0.321
 Iteration  1 RMS(Cart)=  0.13127937 RMS(Int)=  0.02873210
 Iteration  2 RMS(Cart)=  0.02681278 RMS(Int)=  0.00000523
 Iteration  3 RMS(Cart)=  0.00000526 RMS(Int)=  0.00000000
 Iteration  4 RMS(Cart)=  0.00000000 RMS(Int)=  0.00000000
 ClnCor:  largest displacement from symmetrization is 1.99D-15 for atom     1.
 Variable       Old X    -DE/DX   Delta X   Delta X   Delta X     New X
                                 (Linear)    (Quad)   (Total)
    R1        1.85376   0.00422   0.00000   0.00728   0.00728   1.86105
    R2        4.11093  -0.00832   0.00000  -0.24297  -0.24297   3.86796
    A1        2.92182   0.00018   0.00000   0.17582   0.17582   3.09764
         Item               Value     Threshold  Converged?
 Maximum Force            0.008316     0.000450     NO 
 RMS     Force            0.005384     0.000300     NO 
 Maximum Displacement     0.141156     0.001800     NO 
 RMS     Displacement     0.147335     0.001200     NO 
 Predicted change in Energy=-2.037164D-03
 GradGradGradGradGradGradGradGradGradGradGradGradGradGradGradGradGradGrad

                          Input orientation:                          
 ---------------------------------------------------------------------
 Center     Atomic      Atomic             Coordinates (Angstroms)
 Number     Number       Type             X           Y           Z
 ---------------------------------------------------------------------
      1          8           0        5.332191   -4.797936    3.230920
      2         17           0        5.090640   -2.047196    1.981056
      3          1           0        5.278433   -3.909189    2.810068
 ---------------------------------------------------------------------
                    Distance matrix (angstroms):
                    1          2          3
     1  O    0.000000
     2  Cl   3.031019   0.000000
     3  H    0.984824   2.046838   0.000000
 Stoichiometry    ClHO
 Framework group  CS[SG(ClHO)]
 Deg. of freedom     3
 Full point group                 CS      NOp   2
 Largest Abelian subgroup         CS      NOp   2
 Largest concise Abelian subgroup C1      NOp   1
                         Standard orientation:                         
 ---------------------------------------------------------------------
 Center     Atomic      Atomic             Coordinates (Angstroms)
 Number     Number       Type             X           Y           Z
 ---------------------------------------------------------------------
      1          8           0        0.001124    2.019681    0.000000
      2         17           0        0.001124   -1.011338    0.000000
      3          1           0       -0.028098    1.035291   -0.000000
 ---------------------------------------------------------------------
 Rotational constants (GHZ):      605910.0576211           4.9540511           4.9540106
 Standard basis: SVP (5D, 7F)
 There are    29 symmetry adapted cartesian basis functions of A'  symmetry.
 There are    10 symmetry adapted cartesian basis functions of A"  symmetry.
 There are    27 symmetry adapted basis functions of A'  symmetry.
 There are    10 symmetry adapted basis functions of A"  symmetry.
    37 basis functions,    69 primitive gaussians,    39 cartesian basis functions
    13 alpha electrons       13 beta electrons
       nuclear repulsion energy        32.4375942291 Hartrees.
 NAtoms=    3 NActive=    3 NUniq=    3 SFac= 1.00D+00 NAtFMM=   60 NAOKFM=F Big=F
 Integral buffers will be    131072 words long.
 Raffenetti 2 integral format.
 Two-electron integral symmetry is turned on.
 Nuclear repulsion after empirical dispersion term =       32.4360889203 Hartrees.
 One-electron integrals computed using PRISM.
 NBasis=    37 RedAO= T EigKep=  3.23D-02  NBF=    27    10
 NBsUse=    37 1.00D-06 EigRej= -1.00D+00 NBFU=    27    10
 Initial guess from the checkpoint file:  "/tmp/Gau-8857.chk"
 B after Tr=    -0.000000   -0.000000    0.000000
         Rot=    0.999999    0.000000   -0.000000    0.001138 Ang=   0.13 deg.
 Initial guess orbital symmetries:
       Occupied  (A') (A') (A') (A") (A') (A') (A') (A') (A') (A')
                 (A') (A") (A')
       Virtual   (A") (A') (A') (A') (A") (A') (A") (A') (A') (A")
                 (A') (A') (A") (A') (A') (A') (A") (A') (A') (A")
                 (A') (A") (A') (A')
 ExpMin= 1.22D-01 ExpMax= 1.04D+04 ExpMxC= 1.57D+03 IAcc=2 IRadAn=         4 AccDes= 0.00D+00
 Harris functional with IExCor=  402 and IRadAn=       4 diagonalized for initial guess.
 HarFok:  IExCor=  402 AccDes= 0.00D+00 IRadAn=         4 IDoV= 1 UseB2=F ITyADJ=14
 ICtDFT=  3500011 ScaDFX=  1.000000  1.000000  1.000000  1.000000
 FoFCou: FMM=F IPFlag=           0 FMFlag=      100000 FMFlg1=           0
         NFxFlg=           0 DoJE=T BraDBF=F KetDBF=T FulRan=T
         wScrn=  0.000000 ICntrl=       500 IOpCl=  0 I1Cent=   200000004 NGrid=           0
         NMat0=    1 NMatS0=      1 NMatT0=    0 NMatD0=    1 NMtDS0=    0 NMtDT0=    0
 Petite list used in FoFCou.
 Keep R1 ints in memory in symmetry-blocked form, NReq=7153137.
 Requested convergence on RMS density matrix=1.00D-08 within 128 cycles.
 Requested convergence on MAX density matrix=1.00D-06.
 Requested convergence on             energy=1.00D-06.
 No special actions if energy rises.
 Integral accuracy reduced to 1.0D-05 until final iterations.
 Problem detected with inexpensive integrals.
 Switching to full accuracy and repeating last cycle.
 EnCoef did   100 forward-backward iterations
 EnCoef did   100 forward-backward iterations
 SCF Done:  E(RB3LYP) =  -535.604483708     A.U. after   19 cycles
            NFock= 19  Conv=0.22D-08     -V/T= 2.0026
 Calling FoFJK, ICntrl=      2127 FMM=F ISym2X=1 I1Cent= 0 IOpClX= 0 NMat=1 NMatS=1 NMatT=0.
 ***** Axes restored to original set *****
 -------------------------------------------------------------------
 Center     Atomic                   Forces (Hartrees/Bohr)
 Number     Number              X              Y              Z
 -------------------------------------------------------------------
      1        8           0.000294879   -0.003966700    0.001839838
      2       17           0.000607719   -0.005772007    0.002551929
      3        1          -0.000902597    0.009738707   -0.004391767
 -------------------------------------------------------------------
 Cartesian Forces:  Max     0.009738707 RMS     0.004401377

 GradGradGradGradGradGradGradGradGradGradGradGradGradGradGradGradGradGrad
 Berny optimization.
 FormGI is forming the generalized inverse of G from B-inverse, IUseBI=4.
 Internal  Forces:  Max     0.006340097 RMS     0.004450245
 Search for a saddle point.
 Step number   8 out of a maximum of  100
 All quantities printed in internal units (Hartrees-Bohrs-Radians)
 Swapping is turned off.
 Update second derivatives using D2CorX and points    6    7    8
 The second derivative matrix:
                          R1        R2        A1
           R1           0.54036
           R2           0.01177   0.00514
           A1          -0.00706  -0.00462  -0.00578
 ITU=  0  0  0  0
     Eigenvalues ---   -0.00748   0.00650   0.54071
 Eigenvectors required to have negative eigenvalues:
                          A1        R2        R1
   1                   -0.94051  -0.33974  -0.00483
 RFO step:  Lambda0=5.098519312D-04 Lambda=-3.69883150D-03.
 Linear search not attempted -- option 19 set.
 Maximum step size (   0.300) exceeded in Quadratic search.
    -- Step size scaled by   0.461
 Iteration  1 RMS(Cart)=  0.04699461 RMS(Int)=  0.13774011
 New curvilinear step failed, DQL= 2.07D-01 SP=-2.61D-02.
 ITry= 1 IFail=1 DXMaxC= 4.57D-02 DCOld= 1.00D+10 DXMaxT= 3.00D-01 DXLimC= 3.00D+00 Rises=F
 Iteration  1 RMS(Cart)=  0.06131736 RMS(Int)=  0.12049721
 New curvilinear step failed, DQL= 1.49D-01 SP=-1.97D-01.
 ITry= 2 IFail=1 DXMaxC= 5.78D-02 DCOld= 1.00D+10 DXMaxT= 3.00D-01 DXLimC= 3.00D+00 Rises=F
 Iteration  1 RMS(Cart)=  0.06249913 RMS(Int)=  0.10419335
 New curvilinear step failed, DQL= 1.17D-01 SP=-2.50D-01.
 ITry= 3 IFail=1 DXMaxC= 5.90D-02 DCOld= 1.00D+10 DXMaxT= 3.00D-01 DXLimC= 3.00D+00 Rises=F
 Iteration  1 RMS(Cart)=  0.06401424 RMS(Int)=  0.08845391
 New curvilinear step failed, DQL= 8.42D-02 SP=-3.25D-01.
 ITry= 4 IFail=1 DXMaxC= 6.04D-02 DCOld= 1.00D+10 DXMaxT= 3.00D-01 DXLimC= 3.00D+00 Rises=F
 Iteration  1 RMS(Cart)=  0.06576983 RMS(Int)=  0.07364021
 New curvilinear step failed, DQL= 5.10D-02 SP=-4.31D-01.
 ITry= 5 IFail=1 DXMaxC= 6.20D-02 DCOld= 1.00D+10 DXMaxT= 3.00D-01 DXLimC= 3.00D+00 Rises=F
 Iteration  1 RMS(Cart)=  0.06715501 RMS(Int)=  0.06008091
 New curvilinear step failed, DQL= 1.86D-02 SP=-5.69D-01.
 ITry= 6 IFail=1 DXMaxC= 6.34D-02 DCOld= 1.00D+10 DXMaxT= 3.00D-01 DXLimC= 3.00D+00 Rises=F
 Iteration  1 RMS(Cart)=  0.06151342 RMS(Int)=  0.04338329
 Iteration  2 RMS(Cart)=  0.04345040 RMS(Int)=  0.04321894
 Iteration  3 RMS(Cart)=  0.04328393 RMS(Int)=  0.04320951
 Iteration  4 RMS(Cart)=  0.04327441 RMS(Int)=  0.04320915
 Iteration  5 RMS(Cart)=  0.04327404 RMS(Int)=  0.04320912
 Iteration  6 RMS(Cart)=  0.04327402 RMS(Int)=  0.04320912
 Iteration  7 RMS(Cart)=  0.04327401 RMS(Int)=  0.04320912
 Iteration  8 RMS(Cart)=  0.04327401 RMS(Int)=  0.04320912
 Iteration  9 RMS(Cart)=  0.04327401 RMS(Int)=  0.04320912
 Iteration 10 RMS(Cart)=  0.04327401 RMS(Int)=  0.04320912
 Iteration 11 RMS(Cart)=  0.04327401 RMS(Int)=  0.04320912
 Iteration 12 RMS(Cart)=  0.04327401 RMS(Int)=  0.04320912
 Iteration 13 RMS(Cart)=  0.04327401 RMS(Int)=  0.04320912
 Iteration 14 RMS(Cart)=  0.04327401 RMS(Int)=  0.04320912
 Iteration 15 RMS(Cart)=  0.04327401 RMS(Int)=  0.04320912
 Iteration 16 RMS(Cart)=  0.04327401 RMS(Int)=  0.04320912
 Iteration 17 RMS(Cart)=  0.04327401 RMS(Int)=  0.04320912
 Iteration 18 RMS(Cart)=  0.04327401 RMS(Int)=  0.04320912
 Iteration 19 RMS(Cart)=  0.04327401 RMS(Int)=  0.04320912
 Iteration 20 RMS(Cart)=  0.04327401 RMS(Int)=  0.04320912
 Iteration 21 RMS(Cart)=  0.04327401 RMS(Int)=  0.04320912
 Iteration 22 RMS(Cart)=  0.04327401 RMS(Int)=  0.04320912
 Iteration 23 RMS(Cart)=  0.04327401 RMS(Int)=  0.04320912
 Iteration 24 RMS(Cart)=  0.04327401 RMS(Int)=  0.04320912
 Iteration 25 RMS(Cart)=  0.04327401 RMS(Int)=  0.04320912
 Iteration 26 RMS(Cart)=  0.04327401 RMS(Int)=  0.04320912
 Iteration 27 RMS(Cart)=  0.04327401 RMS(Int)=  0.04320912
 Iteration 28 RMS(Cart)=  0.04327401 RMS(Int)=  0.04320912
 Iteration 29 RMS(Cart)=  0.04327401 RMS(Int)=  0.04320912
 Iteration 30 RMS(Cart)=  0.04327401 RMS(Int)=  0.04320912
 Iteration 31 RMS(Cart)=  0.04327401 RMS(Int)=  0.04320912
 Iteration 32 RMS(Cart)=  0.04327401 RMS(Int)=  0.04320912
 Iteration 33 RMS(Cart)=  0.04327401 RMS(Int)=  0.04320912
 Iteration 34 RMS(Cart)=  0.04327401 RMS(Int)=  0.04320912
 Iteration 35 RMS(Cart)=  0.04327401 RMS(Int)=  0.04320912
 Iteration 36 RMS(Cart)=  0.04327401 RMS(Int)=  0.04320912
 Iteration 37 RMS(Cart)=  0.04327401 RMS(Int)=  0.04320912
 Iteration 38 RMS(Cart)=  0.04327401 RMS(Int)=  0.04320912
 Iteration 39 RMS(Cart)=  0.04327401 RMS(Int)=  0.04320912
 Iteration 40 RMS(Cart)=  0.04327401 RMS(Int)=  0.04320912
 Iteration 41 RMS(Cart)=  0.04327401 RMS(Int)=  0.04320912
 Iteration 42 RMS(Cart)=  0.04327401 RMS(Int)=  0.04320912
 Iteration 43 RMS(Cart)=  0.04327401 RMS(Int)=  0.04320912
 Iteration 44 RMS(Cart)=  0.04327401 RMS(Int)=  0.04320912
 Iteration 45 RMS(Cart)=  0.04327401 RMS(Int)=  0.04320912
 Iteration 46 RMS(Cart)=  0.04327401 RMS(Int)=  0.04320912
 Iteration 47 RMS(Cart)=  0.04327401 RMS(Int)=  0.04320912
 Iteration 48 RMS(Cart)=  0.04327401 RMS(Int)=  0.04320912
 Iteration 49 RMS(Cart)=  0.04327401 RMS(Int)=  0.04320912
 Iteration 50 RMS(Cart)=  0.04327401 RMS(Int)=  0.04320912
 Iteration 51 RMS(Cart)=  0.04327401 RMS(Int)=  0.04320912
 Iteration 52 RMS(Cart)=  0.04327401 RMS(Int)=  0.04320912
 Iteration 53 RMS(Cart)=  0.04327401 RMS(Int)=  0.04320912
 Iteration 54 RMS(Cart)=  0.04327401 RMS(Int)=  0.04320912
 Iteration 55 RMS(Cart)=  0.04327401 RMS(Int)=  0.04320912
 Iteration 56 RMS(Cart)=  0.04327401 RMS(Int)=  0.04320912
 Iteration 57 RMS(Cart)=  0.04327401 RMS(Int)=  0.04320912
 Iteration 58 RMS(Cart)=  0.04327401 RMS(Int)=  0.04320912
 Iteration 59 RMS(Cart)=  0.04327401 RMS(Int)=  0.04320912
 Iteration 60 RMS(Cart)=  0.04327401 RMS(Int)=  0.04320912
 Iteration 61 RMS(Cart)=  0.04327401 RMS(Int)=  0.04320912
 Iteration 62 RMS(Cart)=  0.04327401 RMS(Int)=  0.04320912
 Iteration 63 RMS(Cart)=  0.04327401 RMS(Int)=  0.04320912
 Iteration 64 RMS(Cart)=  0.04327401 RMS(Int)=  0.04320912
 Iteration 65 RMS(Cart)=  0.04327401 RMS(Int)=  0.04320912
 Iteration 66 RMS(Cart)=  0.04327401 RMS(Int)=  0.04320912
 Iteration 67 RMS(Cart)=  0.04327401 RMS(Int)=  0.04320912
 Iteration 68 RMS(Cart)=  0.04327401 RMS(Int)=  0.04320912
 Iteration 69 RMS(Cart)=  0.04327401 RMS(Int)=  0.04320912
 Iteration 70 RMS(Cart)=  0.04327401 RMS(Int)=  0.04320912
 Iteration 71 RMS(Cart)=  0.04327401 RMS(Int)=  0.04320912
 Iteration 72 RMS(Cart)=  0.04327401 RMS(Int)=  0.04320912
 Iteration 73 RMS(Cart)=  0.04327401 RMS(Int)=  0.04320912
 Iteration 74 RMS(Cart)=  0.04327401 RMS(Int)=  0.04320912
 Iteration 75 RMS(Cart)=  0.04327401 RMS(Int)=  0.04320912
 Iteration 76 RMS(Cart)=  0.04327401 RMS(Int)=  0.04320912
 Iteration 77 RMS(Cart)=  0.04327401 RMS(Int)=  0.04320912
 Iteration 78 RMS(Cart)=  0.04327401 RMS(Int)=  0.04320912
 Iteration 79 RMS(Cart)=  0.04327401 RMS(Int)=  0.04320912
 Iteration 80 RMS(Cart)=  0.04327401 RMS(Int)=  0.04320912
 Iteration 81 RMS(Cart)=  0.04327401 RMS(Int)=  0.04320912
 Iteration 82 RMS(Cart)=  0.04327401 RMS(Int)=  0.04320912
 Iteration 83 RMS(Cart)=  0.04327401 RMS(Int)=  0.04320912
 Iteration 84 RMS(Cart)=  0.04327401 RMS(Int)=  0.04320912
 Iteration 85 RMS(Cart)=  0.04327401 RMS(Int)=  0.04320912
 Iteration 86 RMS(Cart)=  0.04327401 RMS(Int)=  0.04320912
 Iteration 87 RMS(Cart)=  0.04327401 RMS(Int)=  0.04320912
 Iteration 88 RMS(Cart)=  0.04327401 RMS(Int)=  0.04320912
 Iteration 89 RMS(Cart)=  0.04327401 RMS(Int)=  0.04320912
 Iteration 90 RMS(Cart)=  0.04327401 RMS(Int)=  0.04320912
 Iteration 91 RMS(Cart)=  0.04327401 RMS(Int)=  0.04320912
 Iteration 92 RMS(Cart)=  0.04327401 RMS(Int)=  0.04320912
 Iteration 93 RMS(Cart)=  0.04327401 RMS(Int)=  0.04320912
 Iteration 94 RMS(Cart)=  0.04327401 RMS(Int)=  0.04320912
 Iteration 95 RMS(Cart)=  0.04327401 RMS(Int)=  0.04320912
 Iteration 96 RMS(Cart)=  0.04327401 RMS(Int)=  0.04320912
 Iteration 97 RMS(Cart)=  0.04327401 RMS(Int)=  0.04320912
 Iteration 98 RMS(Cart)=  0.04327401 RMS(Int)=  0.04320912
 Iteration 99 RMS(Cart)=  0.04327401 RMS(Int)=  0.04320912
 Iteration100 RMS(Cart)=  0.04327401 RMS(Int)=  0.04320912
 New curvilinear step not converged.
 ITry= 7 IFail=1 DXMaxC= 5.08D-02 DCOld= 1.00D+10 DXMaxT= 3.00D-01 DXLimC= 3.00D+00 Rises=F
 Iteration  1 RMS(Cart)=  0.04613506 RMS(Int)=  0.01981850
 Iteration  2 RMS(Cart)=  0.01986170 RMS(Int)=  0.01969846
 Iteration  3 RMS(Cart)=  0.01974156 RMS(Int)=  0.01968830
 Iteration  4 RMS(Cart)=  0.01973137 RMS(Int)=  0.01968825
 Iteration  5 RMS(Cart)=  0.01973131 RMS(Int)=  0.01968825
 Iteration  6 RMS(Cart)=  0.01973131 RMS(Int)=  0.01968825
 Iteration  7 RMS(Cart)=  0.01973131 RMS(Int)=  0.01968825
 Iteration  8 RMS(Cart)=  0.01973131 RMS(Int)=  0.01968825
 Iteration  9 RMS(Cart)=  0.01973131 RMS(Int)=  0.01968825
 Iteration 10 RMS(Cart)=  0.01973131 RMS(Int)=  0.01968825
 Iteration 11 RMS(Cart)=  0.01973131 RMS(Int)=  0.01968825
 Iteration 12 RMS(Cart)=  0.01973131 RMS(Int)=  0.01968825
 Iteration 13 RMS(Cart)=  0.01973131 RMS(Int)=  0.01968825
 Iteration 14 RMS(Cart)=  0.01973131 RMS(Int)=  0.01968825
 Iteration 15 RMS(Cart)=  0.01973131 RMS(Int)=  0.01968825
 Iteration 16 RMS(Cart)=  0.01973131 RMS(Int)=  0.01968825
 Iteration 17 RMS(Cart)=  0.01973131 RMS(Int)=  0.01968825
 Iteration 18 RMS(Cart)=  0.01973131 RMS(Int)=  0.01968825
 Iteration 19 RMS(Cart)=  0.01973131 RMS(Int)=  0.01968825
 Iteration 20 RMS(Cart)=  0.01973131 RMS(Int)=  0.01968825
 Iteration 21 RMS(Cart)=  0.01973131 RMS(Int)=  0.01968825
 Iteration 22 RMS(Cart)=  0.01973131 RMS(Int)=  0.01968825
 Iteration 23 RMS(Cart)=  0.01973131 RMS(Int)=  0.01968825
 Iteration 24 RMS(Cart)=  0.01973131 RMS(Int)=  0.01968825
 Iteration 25 RMS(Cart)=  0.01973131 RMS(Int)=  0.01968825
 Iteration 26 RMS(Cart)=  0.01973131 RMS(Int)=  0.01968825
 Iteration 27 RMS(Cart)=  0.01973131 RMS(Int)=  0.01968825
 Iteration 28 RMS(Cart)=  0.01973131 RMS(Int)=  0.01968825
 Iteration 29 RMS(Cart)=  0.01973131 RMS(Int)=  0.01968825
 Iteration 30 RMS(Cart)=  0.01973131 RMS(Int)=  0.01968825
 Iteration 31 RMS(Cart)=  0.01973131 RMS(Int)=  0.01968825
 Iteration 32 RMS(Cart)=  0.01973131 RMS(Int)=  0.01968825
 Iteration 33 RMS(Cart)=  0.01973131 RMS(Int)=  0.01968825
 Iteration 34 RMS(Cart)=  0.01973131 RMS(Int)=  0.01968825
 Iteration 35 RMS(Cart)=  0.01973131 RMS(Int)=  0.01968825
 Iteration 36 RMS(Cart)=  0.01973131 RMS(Int)=  0.01968825
 Iteration 37 RMS(Cart)=  0.01973131 RMS(Int)=  0.01968825
 Iteration 38 RMS(Cart)=  0.01973131 RMS(Int)=  0.01968825
 Iteration 39 RMS(Cart)=  0.01973131 RMS(Int)=  0.01968825
[...]
           A1          -0.00051   0.00718   0.00920
 ITU=  0  0  0  0
     Eigenvalues ---    0.00630   0.02709   0.41655
 Eigenvectors required to have negative eigenvalues:
                          A1        R2        R1
   1                    0.92767  -0.37216   0.03032
 RFO step:  Lambda0=7.257674776D-03 Lambda= 0.00000000D+00.
 Linear search not attempted -- option 19 set.
 Iteration  1 RMS(Cart)=  0.00000001 RMS(Int)=  0.00000000
 ClnCor:  largest displacement from symmetrization is 2.51D-15 for atom     1.
 Variable       Old X    -DE/DX   Delta X   Delta X   Delta X     New X
                                 (Linear)    (Quad)   (Total)
    R1        1.88499   0.00008   0.00000   0.00000   0.00000   1.88499
    R2        3.60299  -0.00098   0.00000   0.00000   0.00000   3.60299
    A1        2.80757   0.00245   0.00000  -0.00000  -0.00000   2.80757
         Item               Value     Threshold  Converged?
 Maximum Force            0.002447     0.000450     NO 
 RMS     Force            0.001523     0.000300     NO 
 Maximum Displacement     0.000000     0.001800     YES
 RMS     Displacement     0.000000     0.001200     YES
 Predicted change in Energy= 3.653193D-11
 GradGradGradGradGradGradGradGradGradGradGradGradGradGradGradGradGradGrad

                          Input orientation:                          
 ---------------------------------------------------------------------
 Center     Atomic      Atomic             Coordinates (Angstroms)
 Number     Number       Type             X           Y           Z
 ---------------------------------------------------------------------
      1          8           0        5.265064   -4.732946    3.244453
      2         17           0        5.057673   -2.134478    2.049203
      3          1           0        5.378526   -3.886897    2.728388
 ---------------------------------------------------------------------
                    Distance matrix (angstroms):
                    1          2          3
     1  O    0.000000
     2  Cl   2.867694   0.000000
     3  H    0.997495   1.906623   0.000000
 Stoichiometry    ClHO
 Framework group  CS[SG(ClHO)]
 Deg. of freedom     3
 Full point group                 CS      NOp   2
 Largest Abelian subgroup         CS      NOp   2
 Largest concise Abelian subgroup C1      NOp   1
                         Standard orientation:                         
 ---------------------------------------------------------------------
 Center     Atomic      Atomic             Coordinates (Angstroms)
 Number     Number       Type             X           Y           Z
 ---------------------------------------------------------------------
      1          8           0        0.008363    1.912474    0.000000
      2         17           0        0.008363   -0.955221   -0.000000
      3          1           0       -0.209067    0.938964    0.000000
 ---------------------------------------------------------------------
 Rotational constants (GHZ):       10933.9680612           5.5395231           5.5367181
 Standard basis: SVP (5D, 7F)
 There are    29 symmetry adapted cartesian basis functions of A'  symmetry.
 There are    10 symmetry adapted cartesian basis functions of A"  symmetry.
 There are    27 symmetry adapted basis functions of A'  symmetry.
 There are    10 symmetry adapted basis functions of A"  symmetry.
    37 basis functions,    69 primitive gaussians,    39 cartesian basis functions
    13 alpha electrons       13 beta electrons
       nuclear repulsion energy        34.0584981969 Hartrees.
 NAtoms=    3 NActive=    3 NUniq=    3 SFac= 1.00D+00 NAtFMM=   60 NAOKFM=F Big=F
 Integral buffers will be    131072 words long.
 Raffenetti 2 integral format.
 Two-electron integral symmetry is turned on.
 Nuclear repulsion after empirical dispersion term =       34.0569202280 Hartrees.
 One-electron integrals computed using PRISM.
 NBasis=    37 RedAO= T EigKep=  3.14D-02  NBF=    27    10
 NBsUse=    37 1.00D-06 EigRej= -1.00D+00 NBFU=    27    10
 Initial guess from the checkpoint file:  "/tmp/Gau-8857.chk"
 B after Tr=     0.000000    0.000000   -0.000000
         Rot=    1.000000    0.000000   -0.000000   -0.000000 Ang=   0.00 deg.
 Initial guess orbital symmetries:
       Occupied  (A') (A') (A') (A") (A') (A') (A') (A') (A') (A')
                 (A") (A') (A')
       Virtual   (A") (A') (A') (A') (A") (A') (A') (A") (A') (A")
                 (A') (A') (A") (A') (A') (A') (A") (A') (A') (A")
                 (A') (A") (A') (A')
 Keep R1 ints in memory in symmetry-blocked form, NReq=7153137.
 Requested convergence on RMS density matrix=1.00D-08 within 128 cycles.
 Requested convergence on MAX density matrix=1.00D-06.
 Requested convergence on             energy=1.00D-06.
 No special actions if energy rises.
 SCF Done:  E(RB3LYP) =  -535.605321724     A.U. after    3 cycles
            NFock=  3  Conv=0.41D-10     -V/T= 2.0026
 Calling FoFJK, ICntrl=      2127 FMM=F ISym2X=1 I1Cent= 0 IOpClX= 0 NMat=1 NMatS=1 NMatT=0.
 ***** Axes restored to original set *****
 -------------------------------------------------------------------
 Center     Atomic                   Forces (Hartrees/Bohr)
 Number     Number              X              Y              Z
 -------------------------------------------------------------------
      1        8           0.001083057   -0.000534501   -0.000483602
      2       17           0.000730069   -0.000944119   -0.000024769
      3        1          -0.001813126    0.001478620    0.000508370
 -------------------------------------------------------------------
 Cartesian Forces:  Max     0.001813126 RMS     0.000991616

 GradGradGradGradGradGradGradGradGradGradGradGradGradGradGradGradGradGrad
 Berny optimization.
 Internal  Forces:  Max     0.002447349 RMS     0.001523141
 Search for a saddle point.
 Step number  99 out of a maximum of  100
 All quantities printed in internal units (Hartrees-Bohrs-Radians)
 Swapping is turned off.
 Update second derivatives using D2CorX and points   99
 The second derivative matrix:
                          R1        R2        A1
           R1           0.41393
           R2           0.03195   0.02681
           A1          -0.00051   0.00718   0.00920
 ITU=  0  0  0  0
     Eigenvalues ---    0.00630   0.02709   0.41655
 Eigenvectors required to have negative eigenvalues:
                          A1        R2        R1
   1                    0.92767  -0.37216   0.03032
 RFO step:  Lambda0=7.257674396D-03 Lambda= 0.00000000D+00.
 Linear search not attempted -- option 19 set.
 Iteration  1 RMS(Cart)=  0.00000001 RMS(Int)=  0.00000000
 ClnCor:  largest displacement from symmetrization is 3.08D-15 for atom     1.
 Variable       Old X    -DE/DX   Delta X   Delta X   Delta X     New X
                                 (Linear)    (Quad)   (Total)
    R1        1.88499   0.00008   0.00000  -0.00000  -0.00000   1.88499
    R2        3.60299  -0.00098   0.00000   0.00000   0.00000   3.60299
    A1        2.80757   0.00245   0.00000  -0.00000  -0.00000   2.80757
         Item               Value     Threshold  Converged?
 Maximum Force            0.002447     0.000450     NO 
 RMS     Force            0.001523     0.000300     NO 
 Maximum Displacement     0.000000     0.001800     YES
 RMS     Displacement     0.000000     0.001200     YES
 Predicted change in Energy= 3.662160D-11
 GradGradGradGradGradGradGradGradGradGradGradGradGradGradGradGradGradGrad

                          Input orientation:                          
 ---------------------------------------------------------------------
 Center     Atomic      Atomic             Coordinates (Angstroms)
 Number     Number       Type             X           Y           Z
 ---------------------------------------------------------------------
      1          8           0        5.265064   -4.732946    3.244453
      2         17           0        5.057673   -2.134478    2.049203
      3          1           0        5.378526   -3.886897    2.728388
 ---------------------------------------------------------------------
                    Distance matrix (angstroms):
                    1          2          3
     1  O    0.000000
     2  Cl   2.867694   0.000000
     3  H    0.997495   1.906623   0.000000
 Stoichiometry    ClHO
 Framework group  CS[SG(ClHO)]
 Deg. of freedom     3
 Full point group                 CS      NOp   2
 Largest Abelian subgroup         CS      NOp   2
 Largest concise Abelian subgroup C1      NOp   1
                         Standard orientation:                         
 ---------------------------------------------------------------------
 Center     Atomic      Atomic             Coordinates (Angstroms)
 Number     Number       Type             X           Y           Z
 ---------------------------------------------------------------------
      1          8           0        0.008363    1.912474    0.000000
      2         17           0        0.008363   -0.955221    0.000000
      3          1           0       -0.209067    0.938964   -0.000000
 ---------------------------------------------------------------------
 Rotational constants (GHZ):       10933.9673588           5.5395232           5.5367181
 Standard basis: SVP (5D, 7F)
 There are    29 symmetry adapted cartesian basis functions of A'  symmetry.
 There are    10 symmetry adapted cartesian basis functions of A"  symmetry.
 There are    27 symmetry adapted basis functions of A'  symmetry.
 There are    10 symmetry adapted basis functions of A"  symmetry.
    37 basis functions,    69 primitive gaussians,    39 cartesian basis functions
    13 alpha electrons       13 beta electrons
       nuclear repulsion energy        34.0584982866 Hartrees.
 NAtoms=    3 NActive=    3 NUniq=    3 SFac= 1.00D+00 NAtFMM=   60 NAOKFM=F Big=F
 Integral buffers will be    131072 words long.
 Raffenetti 2 integral format.
 Two-electron integral symmetry is turned on.
 Nuclear repulsion after empirical dispersion term =       34.0569203177 Hartrees.
 One-electron integrals computed using PRISM.
 NBasis=    37 RedAO= T EigKep=  3.14D-02  NBF=    27    10
 NBsUse=    37 1.00D-06 EigRej= -1.00D+00 NBFU=    27    10
 Initial guess from the checkpoint file:  "/tmp/Gau-8857.chk"
 B after Tr=    -0.000000   -0.000000    0.000000
         Rot=    1.000000    0.000000   -0.000000   -0.000000 Ang=   0.00 deg.
 Initial guess orbital symmetries:
       Occupied  (A') (A') (A') (A") (A') (A') (A') (A') (A') (A')
                 (A") (A') (A')
       Virtual   (A") (A') (A') (A') (A") (A') (A') (A") (A') (A")
                 (A') (A') (A") (A') (A') (A') (A") (A') (A') (A")
                 (A') (A") (A') (A')
 Keep R1 ints in memory in symmetry-blocked form, NReq=7153137.
 Requested convergence on RMS density matrix=1.00D-08 within 128 cycles.
 Requested convergence on MAX density matrix=1.00D-06.
 Requested convergence on             energy=1.00D-06.
 No special actions if energy rises.
 SCF Done:  E(RB3LYP) =  -535.605321724     A.U. after    1 cycles
            NFock=  1  Conv=0.81D-09     -V/T= 2.0026
 Calling FoFJK, ICntrl=      2127 FMM=F ISym2X=1 I1Cent= 0 IOpClX= 0 NMat=1 NMatS=1 NMatT=0.
 ***** Axes restored to original set *****
 -------------------------------------------------------------------
 Center     Atomic                   Forces (Hartrees/Bohr)
 Number     Number              X              Y              Z
 -------------------------------------------------------------------
      1        8           0.001083056   -0.000534510   -0.000483597
      2       17           0.000730069   -0.000944118   -0.000024769
      3        1          -0.001813125    0.001478628    0.000508365
 -------------------------------------------------------------------
 Cartesian Forces:  Max     0.001813125 RMS     0.000991617

 GradGradGradGradGradGradGradGradGradGradGradGradGradGradGradGradGradGrad
 Berny optimization.
 Internal  Forces:  Max     0.002447350 RMS     0.001523141
 Search for a saddle point.
 Step number 100 out of a maximum of  100
 All quantities printed in internal units (Hartrees-Bohrs-Radians)
 Swapping is turned off.
 Update second derivatives using D2CorX and points  100
 The second derivative matrix:
                          R1        R2        A1
           R1           0.41393
           R2           0.03195   0.02681
           A1          -0.00051   0.00718   0.00920
 ITU=  0  0  0  0
     Eigenvalues ---    0.00630   0.02709   0.41655
 Eigenvectors required to have negative eigenvalues:
                          A1        R2        R1
   1                    0.92767  -0.37216   0.03032
 RFO step:  Lambda0=7.257674761D-03 Lambda= 0.00000000D+00.
 Linear search not attempted -- option 19 set.
 Iteration  1 RMS(Cart)=  0.00000001 RMS(Int)=  0.00000000
 ClnCor:  largest displacement from symmetrization is 3.66D-15 for atom     1.
 Variable       Old X    -DE/DX   Delta X   Delta X   Delta X     New X
                                 (Linear)    (Quad)   (Total)
    R1        1.88499   0.00008   0.00000   0.00000   0.00000   1.88499
    R2        3.60299  -0.00098   0.00000   0.00000   0.00000   3.60299
    A1        2.80757   0.00245   0.00000  -0.00000  -0.00000   2.80757
         Item               Value     Threshold  Converged?
 Maximum Force            0.002447     0.000450     NO 
 RMS     Force            0.001523     0.000300     NO 
 Maximum Displacement     0.000000     0.001800     YES
 RMS     Displacement     0.000000     0.001200     YES
 Predicted change in Energy= 2.619390D-11
 Optimization stopped.
    -- Number of steps exceeded,  NStep= 100
    -- Flag reset to prevent archiving.
                           ----------------------------
                           ! Non-Optimized Parameters !
                           ! (Angstroms and Degrees)  !
 --------------------------                            --------------------------
 ! Name  Definition              Value          Derivative Info.                !
 --------------------------------------------------------------------------------
 ! R1    R(1,3)                  0.9975         -DE/DX =    0.0001              !
 ! R2    R(2,3)                  1.9066         -DE/DX =   -0.001               !
 ! A1    A(1,3,2)              160.8617         -DE/DX =    0.0024              !
 --------------------------------------------------------------------------------
 GradGradGradGradGradGradGradGradGradGradGradGradGradGradGradGradGradGrad

                          Input orientation:                          
 ---------------------------------------------------------------------
 Center     Atomic      Atomic             Coordinates (Angstroms)
 Number     Number       Type             X           Y           Z
 ---------------------------------------------------------------------
      1          8           0        5.265064   -4.732946    3.244453
      2         17           0        5.057673   -2.134478    2.049203
      3          1           0        5.378526   -3.886897    2.728388
 ---------------------------------------------------------------------
                    Distance matrix (angstroms):
                    1          2          3
     1  O    0.000000
     2  Cl   2.867694   0.000000
     3  H    0.997495   1.906623   0.000000
 Stoichiometry    ClHO
 Framework group  CS[SG(ClHO)]
 Deg. of freedom     3
 Full point group                 CS      NOp   2
 Largest Abelian subgroup         CS      NOp   2
 Largest concise Abelian subgroup C1      NOp   1
                         Standard orientation:                         
 ---------------------------------------------------------------------
 Center     Atomic      Atomic             Coordinates (Angstroms)
 Number     Number       Type             X           Y           Z
 ---------------------------------------------------------------------
      1          8           0        0.008363    1.912474    0.000000
      2         17           0        0.008363   -0.955221    0.000000
      3          1           0       -0.209067    0.938964    0.000000
 ---------------------------------------------------------------------
 Rotational constants (GHZ):       10933.9673588           5.5395232           5.5367181

 **********************************************************************

            Population analysis using the SCF density.

 **********************************************************************

 Orbital symmetries:
       Occupied  (A') (A') (A') (A") (A') (A') (A') (A') (A') (A')
                 (A") (A') (A')
       Virtual   (A") (A') (A') (A') (A") (A') (A') (A") (A') (A")
                 (A') (A') (A") (A') (A') (A') (A") (A') (A') (A")
                 (A') (A") (A') (A')
 The electronic state is 1-A'.
 Alpha  occ. eigenvalues -- -101.53688 -19.24078  -9.48832  -7.25857  -7.24794
 Alpha  occ. eigenvalues --   -7.24614  -0.99140  -0.81187  -0.49503  -0.36075
 Alpha  occ. eigenvalues --   -0.34388  -0.34001  -0.33237
 Alpha virt. eigenvalues --   -0.29471   0.12174   0.47237   0.49260   0.72925
 Alpha virt. eigenvalues --    0.74016   0.74516   0.74643   0.76238   0.80780
 Alpha virt. eigenvalues --    0.81868   0.85173   0.88235   0.89364   1.02768
 Alpha virt. eigenvalues --    1.21365   1.39562   1.47330   2.20108   2.55570
 Alpha virt. eigenvalues --    2.55925   2.86150   2.90316   3.60928
          Condensed to atoms (all electrons):
               1          2          3
     1  O    7.819863  -0.024423   0.291069
     2  Cl  -0.024423  17.044086   0.079513
     3  H    0.291069   0.079513   0.443732
 Mulliken charges:
               1
     1  O   -0.086509
     2  Cl  -0.099177
     3  H    0.185686
 Sum of Mulliken charges =  -0.00000
 Mulliken charges with hydrogens summed into heavy atoms:
               1
     1  O    0.099177
     2  Cl  -0.099177
 Electronic spatial extent (au):  <R**2>=            205.2324
 Charge=             -0.0000 electrons
 Dipole moment (field-independent basis, Debye):
    X=             -0.3208    Y=             -0.3428    Z=             -0.0000  Tot=              0.4695
 Quadrupole moment (field-independent basis, Debye-Ang):
   XX=            -18.8596   YY=            -21.4755   ZZ=            -16.2072
   XY=             -0.3167   XZ=             -0.0000   YZ=             -0.0000
 Traceless Quadrupole moment (field-independent basis, Debye-Ang):
   XX=             -0.0122   YY=             -2.6280   ZZ=              2.6402
   XY=             -0.3167   XZ=             -0.0000   YZ=             -0.0000
 Octapole moment (field-independent basis, Debye-Ang**2):
  XXX=             -0.0902  YYY=             -3.4236  ZZZ=             -0.0000  XYY=              0.0679
  XXY=              0.8353  XXZ=             -0.0000  XZZ=             -0.0069  YZZ=              1.5292
  YYZ=             -0.0000  XYZ=             -0.0000
 Hexadecapole moment (field-independent basis, Debye-Ang**3):
 XXXX=            -17.3050 YYYY=           -219.8227 ZZZZ=            -13.4964 XXXY=              0.3252
 XXXZ=             -0.0000 YYYX=              0.9711 YYYZ=             -0.0000 ZZZX=             -0.0000
 ZZZY=             -0.0000 XXYY=            -38.4379 XXZZ=             -5.1339 YYZZ=            -32.1233
 XXYZ=             -0.0000 YYXZ=             -0.0000 ZZXY=              0.1138
 N-N= 3.405692031774D+01 E-N=-1.340879088643D+03  KE= 5.342274961843D+02
 Symmetry A'   KE= 4.885427505633D+02
 Symmetry A"   KE= 4.568474562099D+01


 MARY HAD A LITTLE LAMB
      HIS FEET WERE BLACK AS SOOT,
           AND EVERYWHERE THAT MARY WENT
                HIS SOOTY FOOT HE PUT.

                    -- NONAME
 Error termination request processed by link 9999.
 Error termination via Lnk1e in /share/apps/g16.a03/g16/l9999.exe at Thu Mar  6 16:43:16 2025.
 Job cpu time:       0 days  0 hours 12 minutes 55.8 seconds.
 Elapsed time:       0 days  0 hours  1 minutes 39.7 seconds.
 File lengths (MBytes):  RWF=      6 Int=      0 D2E=      0 Chk=      1 Scr=      1
