70
 energy: -143.139618167574 gnorm: 0.124267625257 xtb: 6.6.1 (8d0f1dd)
O    -3.21552292    -2.30955867     3.19760896
H    -3.11344512    -3.25890576     3.28512033
H    -2.33422271    -1.93569239     3.25120585
O    -1.26925207     0.04964007    -1.67703341
H    -0.44511749     0.49645579    -1.47579549
H    -2.03977993     0.39350323    -1.22164014
O    -0.68319936    -0.25567416     3.88232488
H    -1.04331918    -0.09455731     3.00842919
H    -1.31731383    -0.20594631     4.59979568
O    -1.73134864     0.06093641     1.30932637
H    -2.64314993     0.32126373     1.16724518
H    -1.48459627    -0.82656423     1.04325431
O     1.28843807    -0.76387043    -3.11153271
H     1.89438273    -0.21220179    -3.60935997
H     0.37771990    -0.61079803    -3.36940741
O    -1.22895262    -2.49384296    -0.49833885
H    -1.12032336    -1.63563439    -0.91187931
H    -0.71825059    -3.05183196    -1.08755118
O     1.47981569    -2.89158864    -1.38293935
H     1.26014411    -2.13987563    -1.93612050
H     2.40559903    -3.06825458    -1.55915781
O    -3.91798803    -1.75176700     0.16431665
H    -3.02188017    -1.93418710    -0.12387042
H    -3.92196942    -1.82530555     1.12030449
O    -0.60614282    -0.94987354    -5.19084854
H    -0.71787772    -1.16700482    -6.11805289
H    -1.36318108    -0.40626554    -4.96563480
O    -4.01304408     0.61084471    -0.88265870
H    -4.30842628    -0.12144330    -0.33874513
H    -4.77569757     1.18164642    -0.99166951
O    -2.32993407     0.80417068    -4.22177434
Cl    -3.75493398     1.72993005    -4.10555441
H    -2.14238405     0.69958114    -3.28131040
O     2.19675727     1.43748654     3.99784495
Cl     3.50509538     1.72455552     5.04998916
H     1.60020773     0.74649184     4.30968157
O     0.71667341    -1.12650970     1.07877077
Cl     1.56687226    -1.26655798     2.54802644
H     1.14192749    -1.80386711     0.53938960
O    -0.30149456     2.44963255     3.94721724
Cl    -1.20051894     2.22788594     5.37681313
H    -0.08697891     1.53146347     3.74341179
C     5.29755042    -0.31122827    -0.27002142
C     5.08158903    -0.13546981     1.09129856
C     3.99654969     0.59865053     1.53112338
C     3.07200982     1.07337119     0.59477027
C     3.25523604     0.93383987    -0.78067679
C     4.42031988     0.28420224    -1.17176767
H     5.76462094    -0.64843279     1.75550581
H     3.88907662     0.85237458     2.57996518
C    -1.31254766     3.26462901     0.71374826
C    -1.70270905     3.20641297    -0.62649890
C    -2.14667415     3.81741757     1.68971699
C    -3.03632884     3.49684469    -0.88491180
H    -1.06755831     2.84027044    -1.41699825
C    -3.49239848     3.99288647     1.41169000
C    -3.93937007     3.84635963     0.10676517
H    -3.43985343     3.37326418    -1.88152153
H    -4.20923159     4.29863797     2.16232797
Cl     6.68853274    -1.10302608    -0.93592899
Cl    -5.57274160     3.97321661    -0.49208762
N     1.97585711     1.80435145     1.07814597
H     2.13999678     2.06449221     2.03790619
C     0.83012589     2.20710905     0.41038818
O     0.75578499     2.01280281    -0.77954998
N    -0.08748009     2.81709048     1.24356005
H     0.06687111     3.08038345     2.20413309
H    -1.83922490     3.93322878     2.72387693
H     2.63626846     1.45538840    -1.49259758
Cl     4.65561379     0.09565152    -2.87893920
