      -----------------------------------------------------------      
     |                   =====================                   |     
     |                           x T B                           |     
     |                   =====================                   |     
     |                         S. Grimme                         |     
     |          Mulliken Center for Theoretical Chemistry        |     
     |                    University of Bonn                     |     
      -----------------------------------------------------------      

   * xtb version 6.6.1 (8d0f1dd) compiled by 'stahn@M-Bot' on 2023-08-01

   xtb is free software: you can redistribute it and/or modify it under
   the terms of the GNU Lesser General Public License as published by
   the Free Software Foundation, either version 3 of the License, or
   (at your option) any later version.
   
   xtb is distributed in the hope that it will be useful,
   but WITHOUT ANY WARRANTY; without even the implied warranty of
   MERCHANTABILITY or FITNESS FOR A PARTICULAR PURPOSE.  See the
   GNU Lesser General Public License for more details.
   
   Cite this work as:
   * C. Bannwarth, E. Caldeweyher, S. Ehlert, A. Hansen, P. Pracht,
     J. Seibert, S. Spicher, S. Grimme, WIREs Comput. Mol. Sci., 2020, 11,
     e01493. DOI: 10.1002/wcms.1493
   
   for GFN2-xTB:
   * C. Bannwarth, S. Ehlert and S. Grimme., J. Chem. Theory Comput., 2019,
     15, 1652-1671. DOI: 10.1021/acs.jctc.8b01176
   for GFN1-xTB:
   * S. Grimme, C. Bannwarth, P. Shushkov, J. Chem. Theory Comput., 2017,
     13, 1989-2009. DOI: 10.1021/acs.jctc.7b00118
   for GFN0-xTB:
   * P. Pracht, E. Caldeweyher, S. Ehlert, S. Grimme, ChemRxiv, 2019, preprint.
     DOI: 10.26434/chemrxiv.8326202.v1
   for GFN-FF:
   * S. Spicher and S. Grimme, Angew. Chem. Int. Ed., 2020, 59, 15665-15673.
     DOI: 10.1002/anie.202004239
   
   for ALPB and GBSA implicit solvation:
   * S. Ehlert, M. Stahn, S. Spicher, S. Grimme, J. Chem. Theory Comput.,
     2021, 17, 4250-4261. DOI: 10.1021/acs.jctc.1c00471
   
   for DFT-D4:
   * E. Caldeweyher, C. Bannwarth and S. Grimme, J. Chem. Phys., 2017,
     147, 034112. DOI: 10.1063/1.4993215
   * E. Caldeweyher, S. Ehlert, A. Hansen, H. Neugebauer, S. Spicher,
     C. Bannwarth and S. Grimme, J. Chem. Phys., 2019, 150, 154122.
     DOI: 10.1063/1.5090222
   * E. Caldeweyher, J.-M. Mewes, S. Ehlert and S. Grimme, Phys. Chem. Chem. Phys.
     2020, 22, 8499-8512. DOI: 10.1039/D0CP00502A
   
   for sTDA-xTB:
   * S. Grimme and C. Bannwarth, J. Chem. Phys., 2016, 145, 054103.
     DOI: 10.1063/1.4959605
   
   in the mass-spec context:
   * V. Asgeirsson, C. Bauer and S. Grimme, Chem. Sci., 2017, 8, 4879.
     DOI: 10.1039/c7sc00601b
   * J. Koopman and S. Grimme, ACS Omega 2019, 4, 12, 15120-15133.
     DOI: 10.1021/acsomega.9b02011
   
   for metadynamics refer to:
   * S. Grimme, J. Chem. Theory Comput., 2019, 155, 2847-2862
     DOI: 10.1021/acs.jctc.9b00143
   
   for SPH calculations refer to:
   * S. Spicher and S. Grimme, J. Chem. Theory Comput., 2021, 17, 1701-1714
     DOI: 10.1021/acs.jctc.0c01306
   
   with help from (in alphabetical order)
   P. Atkinson, C. Bannwarth, F. Bohle, G. Brandenburg, E. Caldeweyher
   M. Checinski, S. Dohm, S. Ehlert, S. Ehrlich, I. Gerasimov, C. Hölzer
   A. Katbashev, J. Koopman, C. Lavigne, S. Lehtola, F. März, M. Müller,
   F. Musil, H. Neugebauer, J. Pisarek, C. Plett, P. Pracht, F. Pultar,
   J. Seibert, P. Shushkov, S. Spicher, M. Stahn, M. Steiner, T. Strunk,
   J. Stückrath, T. Rose, and J. Unsleber
   
 * started run on 2025/04/07 at 09:40:51.962     

           -------------------------------------------------
          |                Calculation Setup                |
           -------------------------------------------------

          program call               : xtb 189.xyz --input 189.inp
          hostname                   : serv11
          coordinate file            : 189.xyz
          omp threads                :                     8

   ID    Z sym.   atoms
    1    8 O      1, 4, 7, 10, 13, 16, 19, 22, 25, 28, 31, 34, 37, 40, 65
    2    1 H      2, 3, 5, 6, 8, 9, 11, 12, 14, 15, 17, 18, 20, 21, 23, 24,
                  26, 27, 29, 30, 33, 36, 39, 42, 49, 50, 55, 58, 59, 63,
                  67-69
    3   17 Cl     32, 35, 38, 41, 60, 61, 70
    4    6 C      43-48, 51-54, 56, 57, 64
    5    7 N      62, 66

molecular fragmentation (1/2 indicates fragments):
1112222222222222222222222222222222222222222222222222222222222222222222
# atoms in fragment 1/2:     3    67
 fragment masses (1/2) :       18.02      687.56
CMA distance (Bohr)    :  14.451
constraining FC (au)   :  0.0500

           -------------------------------------------------
          |                 G F N 2 - x T B                 |
           -------------------------------------------------

        Reference                      10.1021/acs.jctc.8b01176
      * Hamiltonian:
        H0-scaling (s, p, d)           1.850000    2.230000    2.230000
        zeta-weighting                 0.500000
      * Dispersion:
        s8                             2.700000
        a1                             0.520000
        a2                             5.000000
        s9                             5.000000
      * Repulsion:
        kExp                           1.500000    1.000000
        rExp                           1.000000
      * Coulomb:
        alpha                          2.000000
        third order                    shell-resolved
        anisotropic                    true
        a3                             3.000000
        a5                             4.000000
        cn-shift                       1.200000
        cn-exp                         4.000000
        max-rad                        5.000000

q/qsh data taken from xtbrestart
CAMM data taken from xtbrestart

          ...................................................
          :                      SETUP                      :
          :.................................................:
          :  # basis functions                 223          :
          :  # atomic orbitals                 216          :
          :  # shells                          114          :
          :  # electrons                       234          :
          :  max. iterations                   800          :
          :  Hamiltonian                  GFN2-xTB          :
          :  restarted?                       true          :
          :  GBSA solvation                  false          :
          :  PC potential                    false          :
          :  electronic temp.         6000.0000000     K    :
          :  accuracy                    1.0000000          :
          :  -> integral cutoff          0.2500000E+02      :
          :  -> integral neglect         0.1000000E-07      :
          :  -> SCF convergence          0.1000000E-05 Eh   :
          :  -> wf. convergence          0.1000000E-03 e    :
          :  Broyden damping             0.4000000          :
          ...................................................

 iter      E             dE          RMSdq      gap      omega  full diag
   1   -143.7079728 -0.143708E+03  0.474E+00    1.28       0.0  T
   2   -143.3732253  0.334748E+00  0.336E+00    0.48       1.0  T
   3   -140.5440125  0.282921E+01  0.440E+00    0.05       1.0  T
   4   -143.8727845 -0.332877E+01  0.136E+00    0.72       1.0  T
   5   -143.9770104 -0.104226E+00  0.958E-01    1.33       1.0  T
   6   -143.9911101 -0.140997E-01  0.839E-01    1.35       1.0  T
   7   -144.0265280 -0.354179E-01  0.474E-01    1.74       1.0  T
   8   -144.0400032 -0.134752E-01  0.197E-01    2.06       1.0  T
   9   -144.0429331 -0.292990E-02  0.725E-02    2.25       1.0  T
  10   -144.0432885 -0.355316E-03  0.373E-02    2.35       1.0  T
  11   -144.0432376  0.508587E-04  0.356E-02    2.39       1.0  T
  12   -144.0432894 -0.517820E-04  0.257E-02    2.38       1.0  T
  13   -144.0433489 -0.595679E-04  0.116E-02    2.35       1.0  T
  14   -144.0433431  0.582652E-05  0.112E-02    2.33       1.1  T
  15   -144.0433492 -0.612063E-05  0.963E-03    2.34       1.2  T
  16   -144.0433518 -0.256972E-05  0.719E-03    2.34       1.7  T
  17   -144.0433534 -0.161844E-05  0.519E-03    2.34       2.3  T
  18   -144.0433556 -0.220035E-05  0.213E-03    2.35       5.6  T
  19   -144.0433560 -0.412168E-06  0.564E-04    2.35      21.2  T
  20   -144.0433560  0.172058E-07  0.599E-04    2.35      19.9  T

   *** convergence criteria satisfied after 20 iterations ***

         #    Occupation            Energy/Eh            Energy/eV
      -------------------------------------------------------------
         1        2.0000           -1.0758924             -29.2765
       ...           ...                  ...                  ...
       111        1.9791           -0.4259614             -11.5910
       112        1.9772           -0.4242535             -11.5445
       113        1.9730           -0.4210160             -11.4564
       114        1.9643           -0.4155870             -11.3087
       115        1.9550           -0.4111165             -11.1871
       116        1.9314           -0.4028808             -10.9629
       117        1.8948           -0.3943923             -10.7320 (HOMO)
       118        0.3197           -0.3079242              -8.3790 (LUMO)
       119        0.0587           -0.2729774              -7.4281
       120        0.0355           -0.2632192              -7.1626
       121        0.0345           -0.2626695              -7.1476
       122        0.0344           -0.2625701              -7.1449
       ...           ...                  ...                  ...
       216                          0.6597540              17.9528
      -------------------------------------------------------------
                  HL-Gap            0.0864682 Eh            2.3529 eV
             Fermi-level           -0.3394551 Eh           -9.2370 eV

 SCC (total)                   0 d,  0 h,  0 min,  0.167 sec
 SCC setup                      ...        0 min,  0.000 sec (  0.195%)
 Dispersion                     ...        0 min,  0.001 sec (  0.427%)
 classical contributions        ...        0 min,  0.000 sec (  0.047%)
 integral evaluation            ...        0 min,  0.039 sec ( 23.083%)
 iterations                     ...        0 min,  0.116 sec ( 69.337%)
 molecular gradient             ...        0 min,  0.011 sec (  6.642%)
 printout                       ...        0 min,  0.000 sec (  0.231%)

         :::::::::::::::::::::::::::::::::::::::::::::::::::::
         ::                     SUMMARY                     ::
         :::::::::::::::::::::::::::::::::::::::::::::::::::::
         :: total energy            -142.939003682680 Eh    ::
         :: gradient norm              0.270404531864 Eh/a0 ::
         :: HOMO-LUMO gap              2.352918916507 eV    ::
         ::.................................................::
         :: SCC energy              -144.043356022516 Eh    ::
         :: -> isotropic ES            0.447503786121 Eh    ::
         :: -> anisotropic ES         -0.020950559004 Eh    ::
         :: -> anisotropic XC         -0.001820215672 Eh    ::
         :: -> dispersion             -0.055944569271 Eh    ::
         :: repulsion energy           1.102734898427 Eh    ::
         :: add. restraining           0.000000000000 Eh    ::
         :: total charge               0.000000000000 e     ::
         :::::::::::::::::::::::::::::::::::::::::::::::::::::

           -------------------------------------------------
          |                Property Printout                |
           -------------------------------------------------

    * Orbital Energies and Occupations

         #    Occupation            Energy/Eh            Energy/eV
      -------------------------------------------------------------
         1        2.0000           -1.0758924             -29.2765
       ...           ...                  ...                  ...
       105        1.9862           -0.4339161             -11.8075
       106        1.9858           -0.4333695             -11.7926
       107        1.9844           -0.4315711             -11.7436
       108        1.9833           -0.4302649             -11.7081
       109        1.9830           -0.4299110             -11.6985
       110        1.9804           -0.4271543             -11.6235
       111        1.9791           -0.4259614             -11.5910
       112        1.9772           -0.4242535             -11.5445
       113        1.9730           -0.4210160             -11.4564
       114        1.9643           -0.4155870             -11.3087
       115        1.9550           -0.4111165             -11.1871
       116        1.9314           -0.4028808             -10.9629
       117        1.8948           -0.3943923             -10.7320 (HOMO)
       118        0.3197           -0.3079242              -8.3790 (LUMO)
       119        0.0587           -0.2729774              -7.4281
       120        0.0355           -0.2632192              -7.1626
       121        0.0345           -0.2626695              -7.1476
       122        0.0344           -0.2625701              -7.1449
       123        0.0325           -0.2615000              -7.1158
       124        0.0166           -0.2486039              -6.7649
       125        0.0154           -0.2471129              -6.7243
       126        0.0076           -0.2336892              -6.3590
       127        0.0002           -0.1632375              -4.4419
       128        0.0002           -0.1609326              -4.3792
       ...           ...                  ...                  ...
       216                          0.6597540              17.9528
      -------------------------------------------------------------
                  HL-Gap            0.0864682 Eh            2.3529 eV
             Fermi-level           -0.3394551 Eh           -9.2370 eV

     #   Z          covCN         q      C6AA      α(0)
     1   8 O        1.610    -0.562    24.302     6.654
     2   1 H        0.806     0.284     0.771     1.379
     3   1 H        0.804     0.285     0.769     1.377
     4   8 O        1.616    -0.586    24.842     6.727
     5   1 H        0.807     0.294     0.740     1.351
     6   1 H        0.809     0.297     0.730     1.342
     7   8 O        1.605    -0.586    24.847     6.727
     8   1 H        0.805     0.285     0.767     1.376
     9   1 H        0.800     0.291     0.750     1.361
    10   8 O        1.609    -0.571    24.499     6.680
    11   1 H        0.805     0.279     0.788     1.394
    12   1 H        0.804     0.302     0.716     1.330
    13   8 O        1.612    -0.589    24.917     6.737
    14   1 H        0.808     0.302     0.713     1.326
    15   1 H        0.805     0.304     0.708     1.322
    16   8 O        1.600    -0.578    24.675     6.704
    17   1 H        0.792     0.287     0.765     1.375
    18   1 H        0.808     0.298     0.725     1.337
    19   8 O        1.608    -0.561    24.269     6.649
    20   1 H        0.805     0.287     0.763     1.372
    21   1 H        0.803     0.283     0.775     1.383
    22   8 O        1.612    -0.581    24.730     6.712
    23   1 H        0.807     0.291     0.749     1.359
    24   1 H        0.805     0.293     0.744     1.355
    25   8 O        1.603    -0.560    24.258     6.647
    26   1 H        0.802     0.284     0.770     1.379
    27   1 H        0.801     0.287     0.762     1.372
    28   8 O        1.612    -0.564    24.343     6.659
    29   1 H        0.806     0.284     0.771     1.380
    30   1 H        0.806     0.291     0.747     1.358
    31   8 O        1.732    -0.362    20.103     6.054
    32  17 Cl       0.936     0.045    97.862    15.134
    33   1 H        0.799     0.337     0.621     1.238
    34   8 O        1.739    -0.385    20.530     6.118
    35  17 Cl       0.936     0.039    98.021    15.147
    36   1 H        0.810     0.331     0.634     1.251
    37   8 O        1.625    -0.468    22.226     6.363
    38  17 Cl       0.830    -0.054   100.769    15.357
    39   1 H        0.794     0.280     0.787     1.394
    40   8 O        1.731    -0.380    20.451     6.106
    41  17 Cl       0.936     0.039    98.019    15.146
    42   1 H        0.804     0.335     0.626     1.243
    43   6 C        2.938     0.085    26.096     8.378
    44   6 C        2.968    -0.041    29.024     8.837
    45   6 C        2.934    -0.057    29.409     8.894
    46   6 C        2.932     0.083    26.161     8.388
    47   6 C        2.993    -0.054    29.327     8.883
    48   6 C        3.042     0.084    26.094     8.378
    49   1 H        0.923     0.069     2.096     2.264
    50   1 H        0.926     0.055     2.256     2.349
    51   6 C        2.943     0.082    26.171     8.390
    52   6 C        2.945    -0.034    28.836     8.807
    53   6 C        2.904    -0.040    28.995     8.829
    54   6 C        2.913    -0.031    28.768     8.795
    55   1 H        0.928     0.071     2.079     2.255
    56   6 C        3.003    -0.034    28.836     8.809
    57   6 C        2.876     0.087    26.059     8.368
    58   1 H        0.928     0.081     1.972     2.196
    59   1 H        0.921     0.060     2.201     2.320
    60  17 Cl       1.195    -0.092   102.045    15.455
    61  17 Cl       0.954    -0.141   103.567    15.569
    62   7 N        2.696    -0.199    25.319     7.473
    63   1 H        0.860     0.176     1.237     1.742
    64   6 C        2.709     0.321    21.545     7.598
    65   8 O        0.857    -0.443    22.563     6.369
    66   7 N        2.703    -0.167    24.611     7.368
    67   1 H        0.861     0.183     1.196     1.713
    68   1 H        0.928     0.079     1.985     2.203
    69   1 H        0.922     0.083     1.952     2.185
    70  17 Cl       1.130    -0.092   102.050    15.455

 Mol. C6AA /au·bohr⁶  :      63857.325401
 Mol. C8AA /au·bohr⁸  :    1694695.471806
 Mol. α(0) /au        :        382.945175


Wiberg/Mayer (AO) data.
largest (>0.10) Wiberg bond orders for each atom

 ---------------------------------------------------------------------------
     #   Z sym  total        # sym  WBO       # sym  WBO       # sym  WBO
 ---------------------------------------------------------------------------
     1   8 O    1.837 --     2 H    0.919     3 H    0.918
     2   1 H    0.919 --     1 O    0.919
     3   1 H    0.919 --     1 O    0.918
     4   8 O    1.825 --     5 H    0.913     6 H    0.905
     5   1 H    0.914 --     4 O    0.913
     6   1 H    0.912 --     4 O    0.905
     7   8 O    1.817 --     8 H    0.915     9 H    0.887
     8   1 H    0.919 --     7 O    0.915
     9   1 H    0.915 --     7 O    0.887
    10   8 O    1.824 --    11 H    0.920    12 H    0.896
    11   1 H    0.922 --    10 O    0.920
    12   1 H    0.909 --    10 O    0.896
    13   8 O    1.853 --    14 H    0.904    15 H    0.890
    14   1 H    0.909 --    13 O    0.904
    15   1 H    0.907 --    13 O    0.890
    16   8 O    1.843 --    18 H    0.909    17 H    0.904
    17   1 H    0.918 --    16 O    0.904
    18   1 H    0.911 --    16 O    0.909
    19   8 O    1.837 --    21 H    0.920    20 H    0.918
    20   1 H    0.918 --    19 O    0.918
    21   1 H    0.920 --    19 O    0.920
    22   8 O    1.830 --    23 H    0.915    24 H    0.913
    23   1 H    0.915 --    22 O    0.915
    24   1 H    0.914 --    22 O    0.913
    25   8 O    1.836 --    26 H    0.918    27 H    0.917
    26   1 H    0.919 --    25 O    0.918
    27   1 H    0.918 --    25 O    0.917
    28   8 O    1.831 --    29 H    0.917    30 H    0.913
    29   1 H    0.919 --    28 O    0.917
    30   1 H    0.915 --    28 O    0.913
    31   8 O    1.927 --    32 Cl   1.047    33 H    0.875
    32  17 Cl   1.057 --    31 O    1.047
    33   1 H    0.885 --    31 O    0.875
    34   8 O    1.910 --    35 Cl   1.027    36 H    0.880
    35  17 Cl   1.032 --    34 O    1.027
    36   1 H    0.890 --    34 O    0.880
    37   8 O    1.664 --    39 H    0.914    38 Cl   0.745
    38  17 Cl   0.759 --    37 O    0.745
    39   1 H    0.918 --    37 O    0.914
    40   8 O    1.908 --    41 Cl   1.024    42 H    0.883
    41  17 Cl   1.029 --    40 O    1.024
    42   1 H    0.887 --    40 O    0.883
    43   6 C    3.864 --    44 C    1.387    48 C    1.296    60 Cl   1.022
    44   6 C    3.946 --    45 C    1.428    43 C    1.387    49 H    0.959
    45   6 C    3.940 --    44 C    1.428    46 C    1.367    50 H    0.963
    46   6 C    3.924 --    45 C    1.367    47 C    1.332    62 N    1.089
    47   6 C    3.930 --    48 C    1.406    46 C    1.332    69 H    0.960
    48   6 C    3.881 --    47 C    1.406    43 C    1.296    70 Cl   1.027
    49   1 H    0.993 --    44 C    0.959
    50   1 H    0.996 --    45 C    0.963
    51   6 C    3.912 --    52 C    1.411    53 C    1.329    66 N    1.020
    52   6 C    3.959 --    54 C    1.432    51 C    1.411    55 H    0.959
    53   6 C    3.938 --    56 C    1.460    51 C    1.329    68 H    0.966
                            54 C    0.106
    54   6 C    3.938 --    52 C    1.432    57 C    1.362    58 H    0.967
                            53 C    0.106
    55   1 H    0.993 --    52 C    0.959
    56   6 C    3.954 --    53 C    1.460    57 C    1.395    59 H    0.960
    57   6 C    3.865 --    56 C    1.395    54 C    1.362    61 Cl   0.974
    58   1 H    0.992 --    54 C    0.967
    59   1 H    0.993 --    56 C    0.960
    60  17 Cl   1.166 --    43 C    1.022
    61  17 Cl   1.093 --    57 C    0.974
    62   7 N    3.334 --    46 C    1.089    64 C    1.047    63 H    0.934
                            65 O    0.116
    63   1 H    0.967 --    62 N    0.934
    64   6 C    3.927 --    65 O    1.619    66 N    1.185    62 N    1.047
    65   8 O    1.959 --    64 C    1.619    66 N    0.144    62 N    0.116
    66   7 N    3.407 --    64 C    1.185    51 C    1.020    67 H    0.934
                            65 O    0.144
    67   1 H    0.965 --    66 N    0.934
    68   1 H    0.992 --    53 C    0.966
    69   1 H    0.991 --    47 C    0.960
    70  17 Cl   1.177 --    48 C    1.027
 ---------------------------------------------------------------------------

Topologies differ in total number of bonds
Writing topology from bond orders to xtbtopo.mol

molecular dipole:
                 x           y           z       tot (Debye)
 q only:       -1.480      -0.643      -3.802
   full:       -1.641      -1.298      -3.402      10.153
molecular quadrupole (traceless):
                xx          xy          yy          xz          yz          zz
 q only:      -30.112       7.192      -3.241     -15.526     -45.041      33.352
  q+dip:      -29.315       7.664      -9.025     -10.178     -52.883      38.340
   full:      -30.347       9.458     -10.184     -11.247     -54.723      40.531


           -------------------------------------------------
          | TOTAL ENERGY             -142.939003682680 Eh   |
          | GRADIENT NORM               0.270404531864 Eh/α |
          | HOMO-LUMO GAP               2.352918916507 eV   |
           -------------------------------------------------

------------------------------------------------------------------------
 * finished run on 2025/04/07 at 09:40:52.183     
------------------------------------------------------------------------
 total:
 * wall-time:     0 d,  0 h,  0 min,  0.221 sec
 *  cpu-time:     0 d,  0 h,  0 min,  1.435 sec
 * ratio c/w:     6.496 speedup
 SCF:
 * wall-time:     0 d,  0 h,  0 min,  0.168 sec
 *  cpu-time:     0 d,  0 h,  0 min,  1.308 sec
 * ratio c/w:     7.810 speedup

