      -----------------------------------------------------------      
     |                   =====================                   |     
     |                           x T B                           |     
     |                   =====================                   |     
     |                         S. Grimme                         |     
     |          Mulliken Center for Theoretical Chemistry        |     
     |                    University of Bonn                     |     
      -----------------------------------------------------------      

   * xtb version 6.6.1 (8d0f1dd) compiled by 'stahn@M-Bot' on 2023-08-01

   xtb is free software: you can redistribute it and/or modify it under
   the terms of the GNU Lesser General Public License as published by
   the Free Software Foundation, either version 3 of the License, or
   (at your option) any later version.
   
   xtb is distributed in the hope that it will be useful,
   but WITHOUT ANY WARRANTY; without even the implied warranty of
   MERCHANTABILITY or FITNESS FOR A PARTICULAR PURPOSE.  See the
   GNU Lesser General Public License for more details.
   
   Cite this work as:
   * C. Bannwarth, E. Caldeweyher, S. Ehlert, A. Hansen, P. Pracht,
     J. Seibert, S. Spicher, S. Grimme, WIREs Comput. Mol. Sci., 2020, 11,
     e01493. DOI: 10.1002/wcms.1493
   
   for GFN2-xTB:
   * C. Bannwarth, S. Ehlert and S. Grimme., J. Chem. Theory Comput., 2019,
     15, 1652-1671. DOI: 10.1021/acs.jctc.8b01176
   for GFN1-xTB:
   * S. Grimme, C. Bannwarth, P. Shushkov, J. Chem. Theory Comput., 2017,
     13, 1989-2009. DOI: 10.1021/acs.jctc.7b00118
   for GFN0-xTB:
   * P. Pracht, E. Caldeweyher, S. Ehlert, S. Grimme, ChemRxiv, 2019, preprint.
     DOI: 10.26434/chemrxiv.8326202.v1
   for GFN-FF:
   * S. Spicher and S. Grimme, Angew. Chem. Int. Ed., 2020, 59, 15665-15673.
     DOI: 10.1002/anie.202004239
   
   for ALPB and GBSA implicit solvation:
   * S. Ehlert, M. Stahn, S. Spicher, S. Grimme, J. Chem. Theory Comput.,
     2021, 17, 4250-4261. DOI: 10.1021/acs.jctc.1c00471
   
   for DFT-D4:
   * E. Caldeweyher, C. Bannwarth and S. Grimme, J. Chem. Phys., 2017,
     147, 034112. DOI: 10.1063/1.4993215
   * E. Caldeweyher, S. Ehlert, A. Hansen, H. Neugebauer, S. Spicher,
     C. Bannwarth and S. Grimme, J. Chem. Phys., 2019, 150, 154122.
     DOI: 10.1063/1.5090222
   * E. Caldeweyher, J.-M. Mewes, S. Ehlert and S. Grimme, Phys. Chem. Chem. Phys.
     2020, 22, 8499-8512. DOI: 10.1039/D0CP00502A
   
   for sTDA-xTB:
   * S. Grimme and C. Bannwarth, J. Chem. Phys., 2016, 145, 054103.
     DOI: 10.1063/1.4959605
   
   in the mass-spec context:
   * V. Asgeirsson, C. Bauer and S. Grimme, Chem. Sci., 2017, 8, 4879.
     DOI: 10.1039/c7sc00601b
   * J. Koopman and S. Grimme, ACS Omega 2019, 4, 12, 15120-15133.
     DOI: 10.1021/acsomega.9b02011
   
   for metadynamics refer to:
   * S. Grimme, J. Chem. Theory Comput., 2019, 155, 2847-2862
     DOI: 10.1021/acs.jctc.9b00143
   
   for SPH calculations refer to:
   * S. Spicher and S. Grimme, J. Chem. Theory Comput., 2021, 17, 1701-1714
     DOI: 10.1021/acs.jctc.0c01306
   
   with help from (in alphabetical order)
   P. Atkinson, C. Bannwarth, F. Bohle, G. Brandenburg, E. Caldeweyher
   M. Checinski, S. Dohm, S. Ehlert, S. Ehrlich, I. Gerasimov, C. Hölzer
   A. Katbashev, J. Koopman, C. Lavigne, S. Lehtola, F. März, M. Müller,
   F. Musil, H. Neugebauer, J. Pisarek, C. Plett, P. Pracht, F. Pultar,
   J. Seibert, P. Shushkov, S. Spicher, M. Stahn, M. Steiner, T. Strunk,
   J. Stückrath, T. Rose, and J. Unsleber
   
 * started run on 2025/04/07 at 09:40:46.708     

           -------------------------------------------------
          |                Calculation Setup                |
           -------------------------------------------------

          program call               : xtb 199.xyz --input 199.inp
          hostname                   : serv11
          coordinate file            : 199.xyz
          omp threads                :                     8

   ID    Z sym.   atoms
    1    8 O      1, 4, 7, 10, 13, 16, 19, 22, 25, 28, 31, 34, 37, 40, 65
    2    1 H      2, 3, 5, 6, 8, 9, 11, 12, 14, 15, 17, 18, 20, 21, 23, 24,
                  26, 27, 29, 30, 33, 36, 39, 42, 49, 50, 55, 58, 59, 63,
                  67-69
    3   17 Cl     32, 35, 38, 41, 60, 61, 70
    4    6 C      43-48, 51-54, 56, 57, 64
    5    7 N      62, 66

molecular fragmentation (1/2 indicates fragments):
1112222222222222222222222222222222222222222222222222222222222222222222
# atoms in fragment 1/2:     3    67
 fragment masses (1/2) :       18.02      687.56
CMA distance (Bohr)    :  14.536
constraining FC (au)   :  0.0500

           -------------------------------------------------
          |                 G F N 2 - x T B                 |
           -------------------------------------------------

        Reference                      10.1021/acs.jctc.8b01176
      * Hamiltonian:
        H0-scaling (s, p, d)           1.850000    2.230000    2.230000
        zeta-weighting                 0.500000
      * Dispersion:
        s8                             2.700000
        a1                             0.520000
        a2                             5.000000
        s9                             5.000000
      * Repulsion:
        kExp                           1.500000    1.000000
        rExp                           1.000000
      * Coulomb:
        alpha                          2.000000
        third order                    shell-resolved
        anisotropic                    true
        a3                             3.000000
        a5                             4.000000
        cn-shift                       1.200000
        cn-exp                         4.000000
        max-rad                        5.000000

q/qsh data taken from xtbrestart
CAMM data taken from xtbrestart

          ...................................................
          :                      SETUP                      :
          :.................................................:
          :  # basis functions                 223          :
          :  # atomic orbitals                 216          :
          :  # shells                          114          :
          :  # electrons                       234          :
          :  max. iterations                   800          :
          :  Hamiltonian                  GFN2-xTB          :
          :  restarted?                       true          :
          :  GBSA solvation                  false          :
          :  PC potential                    false          :
          :  electronic temp.         6000.0000000     K    :
          :  accuracy                    1.0000000          :
          :  -> integral cutoff          0.2500000E+02      :
          :  -> integral neglect         0.1000000E-07      :
          :  -> SCF convergence          0.1000000E-05 Eh   :
          :  -> wf. convergence          0.1000000E-03 e    :
          :  Broyden damping             0.4000000          :
          ...................................................

 iter      E             dE          RMSdq      gap      omega  full diag
   1   -144.0100420 -0.144010E+03  0.327E+00    2.13       0.0  T
   2   -144.0226862 -0.126442E-01  0.197E+00    2.45       1.0  T
   3   -143.9793082  0.433780E-01  0.659E-01    1.42       1.0  T
   4   -144.0243146 -0.450064E-01  0.263E-01    2.59       1.0  T
   5   -144.0299383 -0.562362E-02  0.161E-01    2.13       1.0  T
   6   -144.0305768 -0.638570E-03  0.108E-01    2.25       1.0  T
   7   -144.0308030 -0.226176E-03  0.631E-02    2.20       1.0  T
   8   -144.0308943 -0.912642E-04  0.399E-02    2.23       1.0  T
   9   -144.0309245 -0.302856E-04  0.224E-02    2.22       1.0  T
  10   -144.0309400 -0.154669E-04  0.986E-03    2.22       1.2  T
  11   -144.0309422 -0.214947E-05  0.619E-03    2.22       1.9  T
  12   -144.0309430 -0.854073E-06  0.438E-03    2.22       2.7  T
  13   -144.0309435 -0.490989E-06  0.326E-03    2.22       3.7  T
  14   -144.0309438 -0.325722E-06  0.235E-03    2.22       5.1  T
  15   -144.0309441 -0.263181E-06  0.123E-03    2.22       9.7  T
  16   -144.0309442 -0.660161E-07  0.750E-04    2.22      15.9  T
  17   -144.0309442 -0.158950E-07  0.556E-04    2.22      21.5  T

   *** convergence criteria satisfied after 17 iterations ***

         #    Occupation            Energy/Eh            Energy/eV
      -------------------------------------------------------------
         1        2.0000           -1.0748643             -29.2485
       ...           ...                  ...                  ...
       111        1.9707           -0.4169146             -11.3448
       112        1.9700           -0.4164153             -11.3312
       113        1.9678           -0.4150898             -11.2952
       114        1.9598           -0.4107670             -11.1775
       115        1.9467           -0.4052754             -11.0281
       116        1.9392           -0.4027101             -10.9583
       117        1.8957           -0.3920358             -10.6678 (HOMO)
       118        0.3962           -0.3103614              -8.4454 (LUMO)
       119        0.0621           -0.2715634              -7.3896
       120        0.0494           -0.2670727              -7.2674
       121        0.0414           -0.2636369              -7.1739
       122        0.0305           -0.2577112              -7.0127
       ...           ...                  ...                  ...
       216                          0.6717414              18.2790
      -------------------------------------------------------------
                  HL-Gap            0.0816743 Eh            2.2225 eV
             Fermi-level           -0.3369257 Eh           -9.1682 eV

 SCC (total)                   0 d,  0 h,  0 min,  0.154 sec
 SCC setup                      ...        0 min,  0.000 sec (  0.258%)
 Dispersion                     ...        0 min,  0.001 sec (  0.557%)
 classical contributions        ...        0 min,  0.000 sec (  0.063%)
 integral evaluation            ...        0 min,  0.035 sec ( 22.458%)
 iterations                     ...        0 min,  0.107 sec ( 69.139%)
 molecular gradient             ...        0 min,  0.011 sec (  7.215%)
 printout                       ...        0 min,  0.000 sec (  0.259%)

         :::::::::::::::::::::::::::::::::::::::::::::::::::::
         ::                     SUMMARY                     ::
         :::::::::::::::::::::::::::::::::::::::::::::::::::::
         :: total energy            -142.949858666221 Eh    ::
         :: gradient norm              0.261545450277 Eh/a0 ::
         :: HOMO-LUMO gap              2.222472107758 eV    ::
         ::.................................................::
         :: SCC energy              -144.030944180159 Eh    ::
         :: -> isotropic ES            0.442957638027 Eh    ::
         :: -> anisotropic ES         -0.027568977080 Eh    ::
         :: -> anisotropic XC          0.000799944167 Eh    ::
         :: -> dispersion             -0.055847913864 Eh    ::
         :: repulsion energy           1.079483051312 Eh    ::
         :: add. restraining           0.000000000000 Eh    ::
         :: total charge              -0.000000000000 e     ::
         :::::::::::::::::::::::::::::::::::::::::::::::::::::

           -------------------------------------------------
          |                Property Printout                |
           -------------------------------------------------

    * Orbital Energies and Occupations

         #    Occupation            Energy/Eh            Energy/eV
      -------------------------------------------------------------
         1        2.0000           -1.0748643             -29.2485
       ...           ...                  ...                  ...
       105        1.9856           -0.4305052             -11.7146
       106        1.9854           -0.4302115             -11.7066
       107        1.9830           -0.4273353             -11.6284
       108        1.9809           -0.4251551             -11.5691
       109        1.9775           -0.4220047             -11.4833
       110        1.9732           -0.4185847             -11.3903
       111        1.9707           -0.4169146             -11.3448
       112        1.9700           -0.4164153             -11.3312
       113        1.9678           -0.4150898             -11.2952
       114        1.9598           -0.4107670             -11.1775
       115        1.9467           -0.4052754             -11.0281
       116        1.9392           -0.4027101             -10.9583
       117        1.8957           -0.3920358             -10.6678 (HOMO)
       118        0.3962           -0.3103614              -8.4454 (LUMO)
       119        0.0621           -0.2715634              -7.3896
       120        0.0494           -0.2670727              -7.2674
       121        0.0414           -0.2636369              -7.1739
       122        0.0305           -0.2577112              -7.0127
       123        0.0248           -0.2537326              -6.9044
       124        0.0190           -0.2486072              -6.7649
       125        0.0113           -0.2386415              -6.4938
       126        0.0040           -0.2190172              -5.9598
       127        0.0004           -0.1739864              -4.7344
       128        0.0002           -0.1609925              -4.3808
       ...           ...                  ...                  ...
       216                          0.6717414              18.2790
      -------------------------------------------------------------
                  HL-Gap            0.0816743 Eh            2.2225 eV
             Fermi-level           -0.3369257 Eh           -9.1682 eV

     #   Z          covCN         q      C6AA      α(0)
     1   8 O        1.610    -0.561    24.272     6.649
     2   1 H        0.803     0.285     0.768     1.377
     3   1 H        0.806     0.284     0.770     1.378
     4   8 O        1.599    -0.552    24.073     6.622
     5   1 H        0.801     0.275     0.801     1.406
     6   1 H        0.799     0.290     0.754     1.365
     7   8 O        1.614    -0.588    24.898     6.735
     8   1 H        0.806     0.311     0.689     1.304
     9   1 H        0.808     0.282     0.778     1.386
    10   8 O        1.610    -0.570    24.478     6.678
    11   1 H        0.804     0.295     0.737     1.348
    12   1 H        0.806     0.290     0.750     1.360
    13   8 O        1.604    -0.566    24.400     6.667
    14   1 H        0.796     0.309     0.698     1.313
    15   1 H        0.808     0.306     0.702     1.316
    16   8 O        1.606    -0.573    24.554     6.688
    17   1 H        0.809     0.318     0.670     1.285
    18   1 H        0.798     0.285     0.769     1.378
    19   8 O        1.609    -0.562    24.303     6.653
    20   1 H        0.804     0.278     0.792     1.398
    21   1 H        0.804     0.297     0.731     1.343
    22   8 O        1.608    -0.576    24.623     6.697
    23   1 H        0.803     0.298     0.728     1.341
    24   1 H        0.805     0.287     0.761     1.370
    25   8 O        1.614    -0.569    24.464     6.676
    26   1 H        0.808     0.295     0.735     1.346
    27   1 H        0.806     0.287     0.762     1.371
    28   8 O        1.605    -0.558    24.213     6.641
    29   1 H        0.803     0.287     0.761     1.370
    30   1 H        0.802     0.280     0.786     1.393
    31   8 O        1.728    -0.383    20.500     6.113
    32  17 Cl       0.940     0.039    98.034    15.148
    33   1 H        0.799     0.354     0.581     1.197
    34   8 O        1.733    -0.385    20.537     6.119
    35  17 Cl       0.933     0.034    98.178    15.159
    36   1 H        0.805     0.320     0.664     1.280
    37   8 O        1.585    -0.482    22.548     6.408
    38  17 Cl       0.786    -0.093   101.908    15.442
    39   1 H        0.800     0.289     0.756     1.366
    40   8 O        1.732    -0.379    20.428     6.103
    41  17 Cl       0.936     0.044    97.885    15.136
    42   1 H        0.803     0.332     0.633     1.250
    43   6 C        2.894     0.078    26.264     8.402
    44   6 C        2.964    -0.040    29.003     8.834
    45   6 C        2.905    -0.056    29.384     8.888
    46   6 C        2.916     0.071    26.414     8.428
    47   6 C        2.986    -0.057    29.414     8.896
    48   6 C        2.895     0.088    26.046     8.368
    49   1 H        0.927     0.081     1.970     2.195
    50   1 H        0.916     0.050     2.327     2.386
    51   6 C        2.931     0.087    26.072     8.374
    52   6 C        2.930    -0.042    29.051     8.839
    53   6 C        2.932    -0.042    29.043     8.838
    54   6 C        3.109    -0.036    28.750     8.785
    55   1 H        0.922     0.068     2.107     2.270
    56   6 C        2.914    -0.028    28.704     8.785
    57   6 C        2.895     0.072    26.390     8.423
    58   1 H        0.922     0.072     2.059     2.244
    59   1 H        0.922     0.064     2.155     2.296
    60  17 Cl       0.954    -0.120   102.901    15.519
    61  17 Cl       1.083    -0.153   103.977    15.600
    62   7 N        2.695    -0.181    24.914     7.413
    63   1 H        0.860     0.186     1.183     1.704
    64   6 C        2.711     0.342    21.195     7.536
    65   8 O        0.863    -0.421    22.106     6.304
    66   7 N        2.714    -0.183    24.953     7.419
    67   1 H        0.860     0.185     1.184     1.705
    68   1 H        0.924     0.052     2.295     2.369
    69   1 H        0.928     0.096     1.824     2.112
    70  17 Cl       0.971    -0.080   101.651    15.425

 Mol. C6AA /au·bohr⁶  :      63851.360451
 Mol. C8AA /au·bohr⁸  :    1695292.986628
 Mol. α(0) /au        :        382.930364


Wiberg/Mayer (AO) data.
largest (>0.10) Wiberg bond orders for each atom

 ---------------------------------------------------------------------------
     #   Z sym  total        # sym  WBO       # sym  WBO       # sym  WBO
 ---------------------------------------------------------------------------
     1   8 O    1.838 --     3 H    0.919     2 H    0.919
     2   1 H    0.919 --     1 O    0.919
     3   1 H    0.919 --     1 O    0.919
     4   8 O    1.832 --     5 H    0.920     6 H    0.911
     5   1 H    0.924 --     4 O    0.920
     6   1 H    0.916 --     4 O    0.911
     7   8 O    1.821 --     9 H    0.920     8 H    0.893
     8   1 H    0.903 --     7 O    0.893
     9   1 H    0.921 --     7 O    0.920
    10   8 O    1.830 --    12 H    0.915    11 H    0.912
    11   1 H    0.913 --    10 O    0.912
    12   1 H    0.916 --    10 O    0.915
    13   8 O    1.816 --    15 H    0.899    14 H    0.896
    14   1 H    0.904 --    13 O    0.896
    15   1 H    0.906 --    13 O    0.899
    16   8 O    1.820 --    18 H    0.916    17 H    0.883
    17   1 H    0.899 --    16 O    0.883
    18   1 H    0.918 --    16 O    0.916
    19   8 O    1.834 --    20 H    0.923    21 H    0.911
    20   1 H    0.923 --    19 O    0.923
    21   1 H    0.912 --    19 O    0.911
    22   8 O    1.827 --    24 H    0.916    23 H    0.910
    23   1 H    0.911 --    22 O    0.910
    24   1 H    0.918 --    22 O    0.916
    25   8 O    1.830 --    27 H    0.917    26 H    0.911
    26   1 H    0.913 --    25 O    0.911
    27   1 H    0.918 --    25 O    0.917
    28   8 O    1.837 --    30 H    0.921    29 H    0.917
    29   1 H    0.917 --    28 O    0.917
    30   1 H    0.922 --    28 O    0.921
    31   8 O    1.907 --    32 Cl   1.052    33 H    0.840
    32  17 Cl   1.058 --    31 O    1.052
    33   1 H    0.874 --    31 O    0.840
    34   8 O    1.902 --    35 Cl   1.011    36 H    0.889
    35  17 Cl   1.016 --    34 O    1.011
    36   1 H    0.896 --    34 O    0.889
    37   8 O    1.643 --    39 H    0.909    38 Cl   0.676
    38  17 Cl   0.686 --    37 O    0.676
    39   1 H    0.915 --    37 O    0.909
    40   8 O    1.913 --    41 Cl   1.029    42 H    0.885
    41  17 Cl   1.033 --    40 O    1.029
    42   1 H    0.889 --    40 O    0.885
    43   6 C    3.876 --    44 C    1.428    48 C    1.295    60 Cl   0.990
    44   6 C    3.951 --    43 C    1.428    45 C    1.406    49 H    0.961
    45   6 C    3.927 --    44 C    1.406    46 C    1.361    50 H    0.964
    46   6 C    3.923 --    47 C    1.370    45 C    1.361    62 N    1.051
    47   6 C    3.939 --    48 C    1.396    46 C    1.370    69 H    0.956
    48   6 C    3.880 --    47 C    1.396    43 C    1.295    70 Cl   1.031
    49   1 H    0.992 --    44 C    0.961
    50   1 H    0.996 --    45 C    0.964
    51   6 C    3.923 --    52 C    1.355    53 C    1.314    66 N    1.112
    52   6 C    3.936 --    54 C    1.420    51 C    1.355    55 H    0.958
    53   6 C    3.953 --    56 C    1.508    51 C    1.314    68 H    0.956
    54   6 C    3.953 --    57 C    1.435    52 C    1.420    58 H    0.959
    55   1 H    0.993 --    52 C    0.958
    56   6 C    3.949 --    53 C    1.508    57 C    1.317    59 H    0.963
    57   6 C    3.849 --    54 C    1.435    56 C    1.317    61 Cl   0.953
    58   1 H    0.993 --    54 C    0.959
    59   1 H    0.994 --    56 C    0.963
    60  17 Cl   1.119 --    43 C    0.990
    61  17 Cl   1.063 --    57 C    0.953
    62   7 N    3.391 --    64 C    1.142    46 C    1.051    63 H    0.929
                            65 O    0.128
    63   1 H    0.964 --    62 N    0.929
    64   6 C    3.935 --    65 O    1.647    62 N    1.142    66 N    1.079
    65   8 O    1.985 --    64 C    1.647    62 N    0.128    66 N    0.111
    66   7 N    3.384 --    51 C    1.112    64 C    1.079    67 H    0.923
                            65 O    0.111
    67   1 H    0.964 --    66 N    0.923
    68   1 H    0.996 --    53 C    0.956
    69   1 H    0.989 --    47 C    0.956
    70  17 Cl   1.182 --    48 C    1.031
 ---------------------------------------------------------------------------

Topologies differ in total number of bonds
Writing topology from bond orders to xtbtopo.mol

molecular dipole:
                 x           y           z       tot (Debye)
 q only:       -2.160       2.017      -2.466
   full:       -2.415       1.419      -1.607       8.208
molecular quadrupole (traceless):
                xx          xy          yy          xz          yz          zz
 q only:      -24.075     -18.967     -16.240     -16.756     -43.822      40.316
  q+dip:       -9.642     -30.390     -23.726     -14.718     -52.374      33.368
   full:      -11.527     -30.027     -25.272     -14.854     -52.958      36.799


           -------------------------------------------------
          | TOTAL ENERGY             -142.949858666221 Eh   |
          | GRADIENT NORM               0.261545450277 Eh/α |
          | HOMO-LUMO GAP               2.222472107758 eV   |
           -------------------------------------------------

------------------------------------------------------------------------
 * finished run on 2025/04/07 at 09:40:46.928     
------------------------------------------------------------------------
 total:
 * wall-time:     0 d,  0 h,  0 min,  0.220 sec
 *  cpu-time:     0 d,  0 h,  0 min,  1.374 sec
 * ratio c/w:     6.257 speedup
 SCF:
 * wall-time:     0 d,  0 h,  0 min,  0.155 sec
 *  cpu-time:     0 d,  0 h,  0 min,  1.211 sec
 * ratio c/w:     7.828 speedup

