      -----------------------------------------------------------      
     |                   =====================                   |     
     |                           x T B                           |     
     |                   =====================                   |     
     |                         S. Grimme                         |     
     |          Mulliken Center for Theoretical Chemistry        |     
     |                    University of Bonn                     |     
      -----------------------------------------------------------      

   * xtb version 6.6.1 (8d0f1dd) compiled by 'stahn@M-Bot' on 2023-08-01

   xtb is free software: you can redistribute it and/or modify it under
   the terms of the GNU Lesser General Public License as published by
   the Free Software Foundation, either version 3 of the License, or
   (at your option) any later version.
   
   xtb is distributed in the hope that it will be useful,
   but WITHOUT ANY WARRANTY; without even the implied warranty of
   MERCHANTABILITY or FITNESS FOR A PARTICULAR PURPOSE.  See the
   GNU Lesser General Public License for more details.
   
   Cite this work as:
   * C. Bannwarth, E. Caldeweyher, S. Ehlert, A. Hansen, P. Pracht,
     J. Seibert, S. Spicher, S. Grimme, WIREs Comput. Mol. Sci., 2020, 11,
     e01493. DOI: 10.1002/wcms.1493
   
   for GFN2-xTB:
   * C. Bannwarth, S. Ehlert and S. Grimme., J. Chem. Theory Comput., 2019,
     15, 1652-1671. DOI: 10.1021/acs.jctc.8b01176
   for GFN1-xTB:
   * S. Grimme, C. Bannwarth, P. Shushkov, J. Chem. Theory Comput., 2017,
     13, 1989-2009. DOI: 10.1021/acs.jctc.7b00118
   for GFN0-xTB:
   * P. Pracht, E. Caldeweyher, S. Ehlert, S. Grimme, ChemRxiv, 2019, preprint.
     DOI: 10.26434/chemrxiv.8326202.v1
   for GFN-FF:
   * S. Spicher and S. Grimme, Angew. Chem. Int. Ed., 2020, 59, 15665-15673.
     DOI: 10.1002/anie.202004239
   
   for ALPB and GBSA implicit solvation:
   * S. Ehlert, M. Stahn, S. Spicher, S. Grimme, J. Chem. Theory Comput.,
     2021, 17, 4250-4261. DOI: 10.1021/acs.jctc.1c00471
   
   for DFT-D4:
   * E. Caldeweyher, C. Bannwarth and S. Grimme, J. Chem. Phys., 2017,
     147, 034112. DOI: 10.1063/1.4993215
   * E. Caldeweyher, S. Ehlert, A. Hansen, H. Neugebauer, S. Spicher,
     C. Bannwarth and S. Grimme, J. Chem. Phys., 2019, 150, 154122.
     DOI: 10.1063/1.5090222
   * E. Caldeweyher, J.-M. Mewes, S. Ehlert and S. Grimme, Phys. Chem. Chem. Phys.
     2020, 22, 8499-8512. DOI: 10.1039/D0CP00502A
   
   for sTDA-xTB:
   * S. Grimme and C. Bannwarth, J. Chem. Phys., 2016, 145, 054103.
     DOI: 10.1063/1.4959605
   
   in the mass-spec context:
   * V. Asgeirsson, C. Bauer and S. Grimme, Chem. Sci., 2017, 8, 4879.
     DOI: 10.1039/c7sc00601b
   * J. Koopman and S. Grimme, ACS Omega 2019, 4, 12, 15120-15133.
     DOI: 10.1021/acsomega.9b02011
   
   for metadynamics refer to:
   * S. Grimme, J. Chem. Theory Comput., 2019, 155, 2847-2862
     DOI: 10.1021/acs.jctc.9b00143
   
   for SPH calculations refer to:
   * S. Spicher and S. Grimme, J. Chem. Theory Comput., 2021, 17, 1701-1714
     DOI: 10.1021/acs.jctc.0c01306
   
   with help from (in alphabetical order)
   P. Atkinson, C. Bannwarth, F. Bohle, G. Brandenburg, E. Caldeweyher
   M. Checinski, S. Dohm, S. Ehlert, S. Ehrlich, I. Gerasimov, C. Hölzer
   A. Katbashev, J. Koopman, C. Lavigne, S. Lehtola, F. März, M. Müller,
   F. Musil, H. Neugebauer, J. Pisarek, C. Plett, P. Pracht, F. Pultar,
   J. Seibert, P. Shushkov, S. Spicher, M. Stahn, M. Steiner, T. Strunk,
   J. Stückrath, T. Rose, and J. Unsleber
   
 * started run on 2025/04/07 at 09:40:46.943     

           -------------------------------------------------
          |                Calculation Setup                |
           -------------------------------------------------

          program call               : xtb 209.xyz --input 209.inp
          hostname                   : serv11
          coordinate file            : 209.xyz
          omp threads                :                     8

   ID    Z sym.   atoms
    1    8 O      1, 4, 7, 10, 13, 16, 19, 22, 25, 28, 31, 34, 37, 40, 65
    2    1 H      2, 3, 5, 6, 8, 9, 11, 12, 14, 15, 17, 18, 20, 21, 23, 24,
                  26, 27, 29, 30, 33, 36, 39, 42, 49, 50, 55, 58, 59, 63,
                  67-69
    3   17 Cl     32, 35, 38, 41, 60, 61, 70
    4    6 C      43-48, 51-54, 56, 57, 64
    5    7 N      62, 66

molecular fragmentation (1/2 indicates fragments):
1112222222222222222222222222222222222222222222222222222222222222222222
# atoms in fragment 1/2:     3    67
 fragment masses (1/2) :       18.02      687.56
CMA distance (Bohr)    :  14.296
constraining FC (au)   :  0.0500

           -------------------------------------------------
          |                 G F N 2 - x T B                 |
           -------------------------------------------------

        Reference                      10.1021/acs.jctc.8b01176
      * Hamiltonian:
        H0-scaling (s, p, d)           1.850000    2.230000    2.230000
        zeta-weighting                 0.500000
      * Dispersion:
        s8                             2.700000
        a1                             0.520000
        a2                             5.000000
        s9                             5.000000
      * Repulsion:
        kExp                           1.500000    1.000000
        rExp                           1.000000
      * Coulomb:
        alpha                          2.000000
        third order                    shell-resolved
        anisotropic                    true
        a3                             3.000000
        a5                             4.000000
        cn-shift                       1.200000
        cn-exp                         4.000000
        max-rad                        5.000000

q/qsh data taken from xtbrestart
CAMM data taken from xtbrestart

          ...................................................
          :                      SETUP                      :
          :.................................................:
          :  # basis functions                 223          :
          :  # atomic orbitals                 216          :
          :  # shells                          114          :
          :  # electrons                       234          :
          :  max. iterations                   800          :
          :  Hamiltonian                  GFN2-xTB          :
          :  restarted?                       true          :
          :  GBSA solvation                  false          :
          :  PC potential                    false          :
          :  electronic temp.         6000.0000000     K    :
          :  accuracy                    1.0000000          :
          :  -> integral cutoff          0.2500000E+02      :
          :  -> integral neglect         0.1000000E-07      :
          :  -> SCF convergence          0.1000000E-05 Eh   :
          :  -> wf. convergence          0.1000000E-03 e    :
          :  Broyden damping             0.4000000          :
          ...................................................

 iter      E             dE          RMSdq      gap      omega  full diag
   1   -143.7713757 -0.143771E+03  0.360E+00    1.95       0.0  T
   2   -143.8035836 -0.322080E-01  0.219E+00    2.28       1.0  T
   3   -143.6349145  0.168669E+00  0.127E+00    1.23       1.0  T
   4   -143.8296941 -0.194780E+00  0.336E-01    2.49       1.0  T
   5   -143.8357601 -0.606598E-02  0.210E-01    2.74       1.0  T
   6   -143.8362697 -0.509687E-03  0.152E-01    2.70       1.0  T
   7   -143.8367719 -0.502172E-03  0.832E-02    2.70       1.0  T
   8   -143.8369188 -0.146875E-03  0.601E-02    2.71       1.0  T
   9   -143.8369878 -0.690558E-04  0.397E-02    2.72       1.0  T
  10   -143.8370275 -0.396797E-04  0.218E-02    2.72       1.0  T
  11   -143.8370466 -0.190693E-04  0.139E-02    2.73       1.0  T
  12   -143.8370516 -0.500803E-05  0.106E-02    2.73       1.1  T
  13   -143.8370544 -0.275475E-05  0.849E-03    2.73       1.4  T
  14   -143.8370574 -0.299601E-05  0.597E-03    2.73       2.0  T
  15   -143.8370592 -0.189001E-05  0.332E-03    2.73       3.6  T
  16   -143.8370598 -0.560936E-06  0.196E-03    2.73       6.1  T
  17   -143.8370599 -0.136229E-06  0.143E-03    2.73       8.3  T
  18   -143.8370600 -0.604317E-07  0.107E-03    2.73      11.2  T
  19   -143.8370601 -0.483429E-07  0.639E-04    2.73      18.7  T
  20   -143.8370601 -0.177731E-07  0.374E-04    2.73      31.9  T

   *** convergence criteria satisfied after 20 iterations ***

         #    Occupation            Energy/Eh            Energy/eV
      -------------------------------------------------------------
         1        2.0000           -1.0623786             -28.9088
       ...           ...                  ...                  ...
       111        1.9753           -0.4185349             -11.3889
       112        1.9707           -0.4152810             -11.3004
       113        1.9662           -0.4125180             -11.2252
       114        1.9655           -0.4121342             -11.2147
       115        1.9525           -0.4059135             -11.0455
       116        1.9075           -0.3928071             -10.6888
       117        1.9017           -0.3915947             -10.6558 (HOMO)
       118        0.1780           -0.2911005              -7.9212 (LUMO)
       119        0.1757           -0.2908329              -7.9140
       120        0.0836           -0.2757825              -7.5044
       121        0.0800           -0.2749228              -7.4810
       122        0.0535           -0.2670009              -7.2655
       ...           ...                  ...                  ...
       216                          0.6290644              17.1177
      -------------------------------------------------------------
                  HL-Gap            0.1004941 Eh            2.7346 eV
             Fermi-level           -0.3352999 Eh           -9.1240 eV

 SCC (total)                   0 d,  0 h,  0 min,  0.161 sec
 SCC setup                      ...        0 min,  0.000 sec (  0.229%)
 Dispersion                     ...        0 min,  0.001 sec (  0.443%)
 classical contributions        ...        0 min,  0.000 sec (  0.048%)
 integral evaluation            ...        0 min,  0.036 sec ( 22.138%)
 iterations                     ...        0 min,  0.113 sec ( 70.124%)
 molecular gradient             ...        0 min,  0.011 sec (  6.740%)
 printout                       ...        0 min,  0.000 sec (  0.237%)

         :::::::::::::::::::::::::::::::::::::::::::::::::::::
         ::                     SUMMARY                     ::
         :::::::::::::::::::::::::::::::::::::::::::::::::::::
         :: total energy            -142.868597869970 Eh    ::
         :: gradient norm              0.302612005281 Eh/a0 ::
         :: HOMO-LUMO gap              2.734584470733 eV    ::
         ::.................................................::
         :: SCC energy              -143.837060070914 Eh    ::
         :: -> isotropic ES            0.445667374970 Eh    ::
         :: -> anisotropic ES         -0.018057334742 Eh    ::
         :: -> anisotropic XC          0.012785149355 Eh    ::
         :: -> dispersion             -0.055841286570 Eh    ::
         :: repulsion energy           0.966648261564 Eh    ::
         :: add. restraining           0.000000000000 Eh    ::
         :: total charge               0.000000000001 e     ::
         :::::::::::::::::::::::::::::::::::::::::::::::::::::

           -------------------------------------------------
          |                Property Printout                |
           -------------------------------------------------

    * Orbital Energies and Occupations

         #    Occupation            Energy/Eh            Energy/eV
      -------------------------------------------------------------
         1        2.0000           -1.0623786             -28.9088
       ...           ...                  ...                  ...
       105        1.9841           -0.4270655             -11.6210
       106        1.9840           -0.4268487             -11.6151
       107        1.9813           -0.4239227             -11.5355
       108        1.9813           -0.4239177             -11.5354
       109        1.9807           -0.4232508             -11.5172
       110        1.9795           -0.4221272             -11.4867
       111        1.9753           -0.4185349             -11.3889
       112        1.9707           -0.4152810             -11.3004
       113        1.9662           -0.4125180             -11.2252
       114        1.9655           -0.4121342             -11.2147
       115        1.9525           -0.4059135             -11.0455
       116        1.9075           -0.3928071             -10.6888
       117        1.9017           -0.3915947             -10.6558 (HOMO)
       118        0.1780           -0.2911005              -7.9212 (LUMO)
       119        0.1757           -0.2908329              -7.9140
       120        0.0836           -0.2757825              -7.5044
       121        0.0800           -0.2749228              -7.4810
       122        0.0535           -0.2670009              -7.2655
       123        0.0335           -0.2578998              -7.0178
       124        0.0127           -0.2393343              -6.5126
       125        0.0108           -0.2362408              -6.4284
       126        0.0084           -0.2314780              -6.2988
       127        0.0006           -0.1816308              -4.9424
       128        0.0004           -0.1741970              -4.7401
       ...           ...                  ...                  ...
       216                          0.6290644              17.1177
      -------------------------------------------------------------
                  HL-Gap            0.1004941 Eh            2.7346 eV
             Fermi-level           -0.3352999 Eh           -9.1240 eV

     #   Z          covCN         q      C6AA      α(0)
     1   8 O        1.598    -0.553    24.101     6.625
     2   1 H        0.796     0.276     0.801     1.407
     3   1 H        0.803     0.287     0.761     1.371
     4   8 O        1.572    -0.554    24.146     6.630
     5   1 H        0.793     0.296     0.735     1.348
     6   1 H        0.779     0.277     0.800     1.407
     7   8 O        1.586    -0.553    24.109     6.626
     8   1 H        0.798     0.275     0.801     1.407
     9   1 H        0.788     0.283     0.780     1.388
    10   8 O        1.590    -0.553    24.113     6.627
    11   1 H        0.802     0.274     0.805     1.409
    12   1 H        0.788     0.281     0.783     1.392
    13   8 O        1.571    -0.556    24.196     6.637
    14   1 H        0.765     0.278     0.801     1.411
    15   1 H        0.806     0.287     0.762     1.371
    16   8 O        1.608    -0.561    24.270     6.649
    17   1 H        0.808     0.290     0.752     1.362
    18   1 H        0.800     0.283     0.775     1.383
    19   8 O        1.610    -0.572    24.529     6.684
    20   1 H        0.804     0.296     0.732     1.344
    21   1 H        0.806     0.281     0.780     1.387
    22   8 O        1.596    -0.563    24.336     6.658
    23   1 H        0.796     0.284     0.771     1.380
    24   1 H        0.800     0.288     0.760     1.370
    25   8 O        1.596    -0.555    24.148     6.632
    26   1 H        0.791     0.284     0.775     1.384
    27   1 H        0.805     0.286     0.764     1.373
    28   8 O        1.605    -0.568    24.435     6.671
    29   1 H        0.805     0.293     0.742     1.353
    30   1 H        0.801     0.286     0.766     1.375
    31   8 O        1.706    -0.400    20.830     6.162
    32  17 Cl       0.921     0.026    98.417    15.177
    33   1 H        0.793     0.321     0.664     1.281
    34   8 O        1.694    -0.443    21.689     6.288
    35  17 Cl       0.912    -0.007    99.408    15.253
    36   1 H        0.801     0.312     0.687     1.302
    37   8 O        1.691    -0.439    21.604     6.275
    38  17 Cl       0.937    -0.014    99.629    15.270
    39   1 H        0.858     0.331     0.628     1.242
    40   8 O        1.754    -0.382    20.475     6.110
    41  17 Cl       0.941     0.067    97.211    15.084
    42   1 H        0.814     0.339     0.614     1.230
    43   6 C        2.896     0.071    26.410     8.426
    44   6 C        2.956    -0.036    28.884     8.815
    45   6 C        2.929    -0.059    29.456     8.901
    46   6 C        2.920     0.086    26.082     8.375
    47   6 C        2.991    -0.063    29.563     8.919
    48   6 C        2.895     0.089    26.010     8.362
    49   1 H        0.925     0.078     1.997     2.210
    50   1 H        0.929     0.071     2.071     2.251
    51   6 C        2.918     0.072    26.386     8.423
    52   6 C        2.921    -0.030    28.757     8.794
    53   6 C        2.904    -0.032    28.806     8.800
    54   6 C        2.909    -0.021    28.530     8.759
    55   1 H        0.924     0.067     2.117     2.276
    56   6 C        2.966    -0.041    29.025     8.837
    57   6 C        2.868     0.084    26.123     8.378
    58   1 H        0.926     0.092     1.864     2.135
    59   1 H        0.929     0.075     2.034     2.230
    60  17 Cl       0.932    -0.144   103.641    15.575
    61  17 Cl       0.912    -0.146   103.713    15.580
    62   7 N        2.699    -0.161    24.486     7.349
    63   1 H        0.860     0.224     0.992     1.560
    64   6 C        2.688     0.324    21.497     7.588
    65   8 O        0.856    -0.400    21.681     6.243
    66   7 N        2.676    -0.245    26.377     7.628
    67   1 H        0.860     0.182     1.203     1.718
    68   1 H        0.924     0.073     2.055     2.242
    69   1 H        0.926     0.099     1.793     2.094
    70  17 Cl       0.964    -0.115   102.738    15.507

 Mol. C6AA /au·bohr⁶  :      63766.551595
 Mol. C8AA /au·bohr⁸  :    1693641.369263
 Mol. α(0) /au        :        382.709284


Wiberg/Mayer (AO) data.
largest (>0.10) Wiberg bond orders for each atom

 ---------------------------------------------------------------------------
     #   Z sym  total        # sym  WBO       # sym  WBO       # sym  WBO
 ---------------------------------------------------------------------------
     1   8 O    1.838 --     2 H    0.922     3 H    0.916
     2   1 H    0.924 --     1 O    0.922
     3   1 H    0.917 --     1 O    0.916
     4   8 O    1.834 --     6 H    0.922     5 H    0.911
     5   1 H    0.912 --     4 O    0.911
     6   1 H    0.923 --     4 O    0.922
     7   8 O    1.844 --     8 H    0.921     9 H    0.914
     8   1 H    0.924 --     7 O    0.921
     9   1 H    0.920 --     7 O    0.914
    10   8 O    1.846 --    11 H    0.920    12 H    0.912
    11   1 H    0.925 --    10 O    0.920
    12   1 H    0.921 --    10 O    0.912
    13   8 O    1.841 --    14 H    0.922    15 H    0.911
    14   1 H    0.923 --    13 O    0.922
    15   1 H    0.918 --    13 O    0.911
    16   8 O    1.837 --    17 H    0.913    18 H    0.913
    17   1 H    0.916 --    16 O    0.913
    18   1 H    0.920 --    16 O    0.913
    19   8 O    1.838 --    21 H    0.917    20 H    0.911
    20   1 H    0.912 --    19 O    0.911
    21   1 H    0.921 --    19 O    0.917
    22   8 O    1.818 --    23 H    0.910    24 H    0.907
    23   1 H    0.919 --    22 O    0.910
    24   1 H    0.917 --    22 O    0.907
    25   8 O    1.834 --    26 H    0.917    27 H    0.915
    26   1 H    0.919 --    25 O    0.917
    27   1 H    0.918 --    25 O    0.915
    28   8 O    1.829 --    30 H    0.918    29 H    0.908
    29   1 H    0.914 --    28 O    0.908
    30   1 H    0.918 --    28 O    0.918
    31   8 O    1.860 --    32 Cl   0.964    33 H    0.894
    32  17 Cl   0.966 --    31 O    0.964
    33   1 H    0.896 --    31 O    0.894
    34   8 O    1.778 --    36 H    0.899    35 Cl   0.870
    35  17 Cl   0.907 --    34 O    0.870
    36   1 H    0.902 --    34 O    0.899
    37   8 O    1.753 --    39 H    0.878    38 Cl   0.869
    38  17 Cl   0.887 --    37 O    0.869
    39   1 H    0.890 --    37 O    0.878
    40   8 O    1.926 --    41 Cl   1.037    42 H    0.869
    41  17 Cl   1.046 --    40 O    1.037
    42   1 H    0.885 --    40 O    0.869
    43   6 C    3.866 --    44 C    1.401    48 C    1.335    60 Cl   0.960
    44   6 C    3.953 --    45 C    1.439    43 C    1.401    49 H    0.959
    45   6 C    3.932 --    44 C    1.439    46 C    1.327    50 H    0.964
    46   6 C    3.932 --    47 C    1.333    45 C    1.327    62 N    1.136
    47   6 C    3.929 --    48 C    1.418    46 C    1.333    69 H    0.950
    48   6 C    3.892 --    47 C    1.418    43 C    1.335    70 Cl   0.991
    49   1 H    0.992 --    44 C    0.959
    50   1 H    0.994 --    45 C    0.964
    51   6 C    3.908 --    52 C    1.416    53 C    1.369    66 N    0.990
    52   6 C    3.878 --    51 C    1.416    54 C    1.288    55 H    0.963
                            56 C    0.110
    53   6 C    3.945 --    56 C    1.478    51 C    1.369    68 H    0.957
    54   6 C    3.936 --    57 C    1.545    52 C    1.288    58 H    0.954
    55   1 H    0.991 --    52 C    0.963
    56   6 C    3.886 --    53 C    1.478    57 C    1.265    59 H    0.970
                            52 C    0.110
    57   6 C    3.863 --    54 C    1.545    56 C    1.265    61 Cl   0.934
    58   1 H    0.988 --    54 C    0.954
    59   1 H    0.992 --    56 C    0.970
    60  17 Cl   1.073 --    43 C    0.960
    61  17 Cl   1.047 --    57 C    0.934
    62   7 N    3.412 --    46 C    1.136    64 C    1.095    63 H    0.908
                            65 O    0.113
    63   1 H    0.948 --    62 N    0.908
    64   6 C    3.904 --    65 O    1.698    62 N    1.095    66 N    1.042
    65   8 O    2.017 --    64 C    1.698    66 N    0.118    62 N    0.113
    66   7 N    3.176 --    64 C    1.042    51 C    0.990    67 H    0.918
                            65 O    0.118
    67   1 H    0.963 --    66 N    0.918
    68   1 H    0.992 --    53 C    0.957
    69   1 H    0.988 --    47 C    0.950
    70  17 Cl   1.124 --    48 C    0.991
 ---------------------------------------------------------------------------

Topologies differ in total number of bonds
Writing topology from bond orders to xtbtopo.mol

molecular dipole:
                 x           y           z       tot (Debye)
 q only:       -0.642       2.899      -1.828
   full:       -0.282       3.371      -0.793       8.831
molecular quadrupole (traceless):
                xx          xy          yy          xz          yz          zz
 q only:      -63.880      -4.298      42.973       5.554     -10.961      20.907
  q+dip:      -65.521      -4.039      49.981       5.768      -4.299      15.541
   full:      -65.379      -3.688      48.184       5.566      -3.153      17.195


           -------------------------------------------------
          | TOTAL ENERGY             -142.868597869970 Eh   |
          | GRADIENT NORM               0.302612005281 Eh/α |
          | HOMO-LUMO GAP               2.734584470733 eV   |
           -------------------------------------------------

------------------------------------------------------------------------
 * finished run on 2025/04/07 at 09:40:47.173     
------------------------------------------------------------------------
 total:
 * wall-time:     0 d,  0 h,  0 min,  0.230 sec
 *  cpu-time:     0 d,  0 h,  0 min,  1.397 sec
 * ratio c/w:     6.082 speedup
 SCF:
 * wall-time:     0 d,  0 h,  0 min,  0.162 sec
 *  cpu-time:     0 d,  0 h,  0 min,  1.264 sec
 * ratio c/w:     7.821 speedup

