      -----------------------------------------------------------      
     |                   =====================                   |     
     |                           x T B                           |     
     |                   =====================                   |     
     |                         S. Grimme                         |     
     |          Mulliken Center for Theoretical Chemistry        |     
     |                    University of Bonn                     |     
      -----------------------------------------------------------      

   * xtb version 6.6.1 (8d0f1dd) compiled by 'stahn@M-Bot' on 2023-08-01

   xtb is free software: you can redistribute it and/or modify it under
   the terms of the GNU Lesser General Public License as published by
   the Free Software Foundation, either version 3 of the License, or
   (at your option) any later version.
   
   xtb is distributed in the hope that it will be useful,
   but WITHOUT ANY WARRANTY; without even the implied warranty of
   MERCHANTABILITY or FITNESS FOR A PARTICULAR PURPOSE.  See the
   GNU Lesser General Public License for more details.
   
   Cite this work as:
   * C. Bannwarth, E. Caldeweyher, S. Ehlert, A. Hansen, P. Pracht,
     J. Seibert, S. Spicher, S. Grimme, WIREs Comput. Mol. Sci., 2020, 11,
     e01493. DOI: 10.1002/wcms.1493
   
   for GFN2-xTB:
   * C. Bannwarth, S. Ehlert and S. Grimme., J. Chem. Theory Comput., 2019,
     15, 1652-1671. DOI: 10.1021/acs.jctc.8b01176
   for GFN1-xTB:
   * S. Grimme, C. Bannwarth, P. Shushkov, J. Chem. Theory Comput., 2017,
     13, 1989-2009. DOI: 10.1021/acs.jctc.7b00118
   for GFN0-xTB:
   * P. Pracht, E. Caldeweyher, S. Ehlert, S. Grimme, ChemRxiv, 2019, preprint.
     DOI: 10.26434/chemrxiv.8326202.v1
   for GFN-FF:
   * S. Spicher and S. Grimme, Angew. Chem. Int. Ed., 2020, 59, 15665-15673.
     DOI: 10.1002/anie.202004239
   
   for ALPB and GBSA implicit solvation:
   * S. Ehlert, M. Stahn, S. Spicher, S. Grimme, J. Chem. Theory Comput.,
     2021, 17, 4250-4261. DOI: 10.1021/acs.jctc.1c00471
   
   for DFT-D4:
   * E. Caldeweyher, C. Bannwarth and S. Grimme, J. Chem. Phys., 2017,
     147, 034112. DOI: 10.1063/1.4993215
   * E. Caldeweyher, S. Ehlert, A. Hansen, H. Neugebauer, S. Spicher,
     C. Bannwarth and S. Grimme, J. Chem. Phys., 2019, 150, 154122.
     DOI: 10.1063/1.5090222
   * E. Caldeweyher, J.-M. Mewes, S. Ehlert and S. Grimme, Phys. Chem. Chem. Phys.
     2020, 22, 8499-8512. DOI: 10.1039/D0CP00502A
   
   for sTDA-xTB:
   * S. Grimme and C. Bannwarth, J. Chem. Phys., 2016, 145, 054103.
     DOI: 10.1063/1.4959605
   
   in the mass-spec context:
   * V. Asgeirsson, C. Bauer and S. Grimme, Chem. Sci., 2017, 8, 4879.
     DOI: 10.1039/c7sc00601b
   * J. Koopman and S. Grimme, ACS Omega 2019, 4, 12, 15120-15133.
     DOI: 10.1021/acsomega.9b02011
   
   for metadynamics refer to:
   * S. Grimme, J. Chem. Theory Comput., 2019, 155, 2847-2862
     DOI: 10.1021/acs.jctc.9b00143
   
   for SPH calculations refer to:
   * S. Spicher and S. Grimme, J. Chem. Theory Comput., 2021, 17, 1701-1714
     DOI: 10.1021/acs.jctc.0c01306
   
   with help from (in alphabetical order)
   P. Atkinson, C. Bannwarth, F. Bohle, G. Brandenburg, E. Caldeweyher
   M. Checinski, S. Dohm, S. Ehlert, S. Ehrlich, I. Gerasimov, C. Hölzer
   A. Katbashev, J. Koopman, C. Lavigne, S. Lehtola, F. März, M. Müller,
   F. Musil, H. Neugebauer, J. Pisarek, C. Plett, P. Pracht, F. Pultar,
   J. Seibert, P. Shushkov, S. Spicher, M. Stahn, M. Steiner, T. Strunk,
   J. Stückrath, T. Rose, and J. Unsleber
   
 * started run on 2025/04/07 at 09:40:47.187     

           -------------------------------------------------
          |                Calculation Setup                |
           -------------------------------------------------

          program call               : xtb 219.xyz --input 219.inp
          hostname                   : serv11
          coordinate file            : 219.xyz
          omp threads                :                     8

   ID    Z sym.   atoms
    1    8 O      1, 4, 7, 10, 13, 16, 19, 22, 25, 28, 31, 34, 37, 40, 65
    2    1 H      2, 3, 5, 6, 8, 9, 11, 12, 14, 15, 17, 18, 20, 21, 23, 24,
                  26, 27, 29, 30, 33, 36, 39, 42, 49, 50, 55, 58, 59, 63,
                  67-69
    3   17 Cl     32, 35, 38, 41, 60, 61, 70
    4    6 C      43-48, 51-54, 56, 57, 64
    5    7 N      62, 66

molecular fragmentation (1/2 indicates fragments):
1112222222222222222222222222222222222222222222222222222222222222222222
# atoms in fragment 1/2:     3    67
 fragment masses (1/2) :       18.02      687.56
CMA distance (Bohr)    :  14.282
constraining FC (au)   :  0.0500

           -------------------------------------------------
          |                 G F N 2 - x T B                 |
           -------------------------------------------------

        Reference                      10.1021/acs.jctc.8b01176
      * Hamiltonian:
        H0-scaling (s, p, d)           1.850000    2.230000    2.230000
        zeta-weighting                 0.500000
      * Dispersion:
        s8                             2.700000
        a1                             0.520000
        a2                             5.000000
        s9                             5.000000
      * Repulsion:
        kExp                           1.500000    1.000000
        rExp                           1.000000
      * Coulomb:
        alpha                          2.000000
        third order                    shell-resolved
        anisotropic                    true
        a3                             3.000000
        a5                             4.000000
        cn-shift                       1.200000
        cn-exp                         4.000000
        max-rad                        5.000000

q/qsh data taken from xtbrestart
CAMM data taken from xtbrestart

          ...................................................
          :                      SETUP                      :
          :.................................................:
          :  # basis functions                 223          :
          :  # atomic orbitals                 216          :
          :  # shells                          114          :
          :  # electrons                       234          :
          :  max. iterations                   800          :
          :  Hamiltonian                  GFN2-xTB          :
          :  restarted?                       true          :
          :  GBSA solvation                  false          :
          :  PC potential                    false          :
          :  electronic temp.         6000.0000000     K    :
          :  accuracy                    1.0000000          :
          :  -> integral cutoff          0.2500000E+02      :
          :  -> integral neglect         0.1000000E-07      :
          :  -> SCF convergence          0.1000000E-05 Eh   :
          :  -> wf. convergence          0.1000000E-03 e    :
          :  Broyden damping             0.4000000          :
          ...................................................

 iter      E             dE          RMSdq      gap      omega  full diag
   1   -143.7731189 -0.143773E+03  0.390E+00    0.69       0.0  T
   2   -143.4632806  0.309838E+00  0.282E+00    0.09       1.0  T
   3   -140.5014422  0.296184E+01  0.458E+00    0.01       1.0  T
   4   -143.4111124 -0.290967E+01  0.196E+00    0.11       1.0  T
   5   -143.8400416 -0.428929E+00  0.101E+00    1.14       1.0  T
   6   -143.8964572 -0.564157E-01  0.563E-01    1.42       1.0  T
   7   -143.8991760 -0.271879E-02  0.496E-01    1.33       1.0  T
   8   -143.9004268 -0.125077E-02  0.285E-01    1.42       1.0  T
   9   -143.9039431 -0.351630E-02  0.162E-01    1.42       1.0  T
  10   -143.9048172 -0.874148E-03  0.123E-01    1.43       1.0  T
  11   -143.9051208 -0.303536E-03  0.106E-01    1.41       1.0  T
  12   -143.9054109 -0.290159E-03  0.550E-02    1.42       1.0  T
  13   -143.9054925 -0.815418E-04  0.306E-02    1.43       1.0  T
  14   -143.9055238 -0.313484E-04  0.212E-02    1.42       1.0  T
  15   -143.9055325 -0.864922E-05  0.165E-02    1.42       1.0  T
  16   -143.9055409 -0.847428E-05  0.117E-02    1.42       1.0  T
  17   -143.9055476 -0.663581E-05  0.624E-03    1.42       1.9  T
  18   -143.9055493 -0.167324E-05  0.293E-03    1.42       4.1  T
  19   -143.9055495 -0.296450E-06  0.212E-03    1.42       5.6  T
  20   -143.9055497 -0.125367E-06  0.164E-03    1.42       7.3  T
  21   -143.9055498 -0.835617E-07  0.108E-03    1.42      11.0  T
  22   -143.9055498 -0.604648E-07  0.669E-04    1.42      17.9  T
  23   -143.9055498 -0.188352E-07  0.447E-04    1.42      26.8  T

   *** convergence criteria satisfied after 23 iterations ***

         #    Occupation            Energy/Eh            Energy/eV
      -------------------------------------------------------------
         1        2.0000           -1.0706670             -29.1343
       ...           ...                  ...                  ...
       111        1.9574           -0.4141433             -11.2694
       112        1.9428           -0.4083840             -11.1127
       113        1.9223           -0.4023681             -10.9490
       114        1.9118           -0.3998538             -10.8806
       115        1.8739           -0.3926843             -10.6855
       116        1.8243           -0.3858735             -10.5002
       117        1.7540           -0.3787344             -10.3059 (HOMO)
       118        0.6265           -0.3264925              -8.8843 (LUMO)
       119        0.4586           -0.3183740              -8.6634
       120        0.0733           -0.2793021              -7.6002
       121        0.0466           -0.2704369              -7.3590
       122        0.0403           -0.2676116              -7.2821
       ...           ...                  ...                  ...
       216                          0.6563355              17.8598
      -------------------------------------------------------------
                  HL-Gap            0.0522419 Eh            1.4216 eV
             Fermi-level           -0.3414069 Eh           -9.2902 eV

 SCC (total)                   0 d,  0 h,  0 min,  0.156 sec
 SCC setup                      ...        0 min,  0.000 sec (  0.216%)
 Dispersion                     ...        0 min,  0.001 sec (  0.466%)
 classical contributions        ...        0 min,  0.000 sec (  0.051%)
 integral evaluation            ...        0 min,  0.024 sec ( 15.254%)
 iterations                     ...        0 min,  0.120 sec ( 76.812%)
 molecular gradient             ...        0 min,  0.011 sec (  6.942%)
 printout                       ...        0 min,  0.000 sec (  0.223%)

         :::::::::::::::::::::::::::::::::::::::::::::::::::::
         ::                     SUMMARY                     ::
         :::::::::::::::::::::::::::::::::::::::::::::::::::::
         :: total energy            -142.863239825281 Eh    ::
         :: gradient norm              0.257011098782 Eh/a0 ::
         :: HOMO-LUMO gap              1.421575281660 eV    ::
         ::.................................................::
         :: SCC energy              -143.905549834881 Eh    ::
         :: -> isotropic ES            0.460462236406 Eh    ::
         :: -> anisotropic ES         -0.030865803153 Eh    ::
         :: -> anisotropic XC         -0.004742875288 Eh    ::
         :: -> dispersion             -0.057020155188 Eh    ::
         :: repulsion energy           1.040588315219 Eh    ::
         :: add. restraining           0.000000000000 Eh    ::
         :: total charge              -0.000000000000 e     ::
         :::::::::::::::::::::::::::::::::::::::::::::::::::::

           -------------------------------------------------
          |                Property Printout                |
           -------------------------------------------------

    * Orbital Energies and Occupations

         #    Occupation            Energy/Eh            Energy/eV
      -------------------------------------------------------------
         1        2.0000           -1.0706670             -29.1343
       ...           ...                  ...                  ...
       105        1.9717           -0.4220690             -11.4851
       106        1.9657           -0.4183257             -11.3832
       107        1.9630           -0.4168810             -11.3439
       108        1.9604           -0.4155562             -11.3079
       109        1.9601           -0.4153973             -11.3035
       110        1.9598           -0.4152532             -11.2996
       111        1.9574           -0.4141433             -11.2694
       112        1.9428           -0.4083840             -11.1127
       113        1.9223           -0.4023681             -10.9490
       114        1.9118           -0.3998538             -10.8806
       115        1.8739           -0.3926843             -10.6855
       116        1.8243           -0.3858735             -10.5002
       117        1.7540           -0.3787344             -10.3059 (HOMO)
       118        0.6265           -0.3264925              -8.8843 (LUMO)
       119        0.4586           -0.3183740              -8.6634
       120        0.0733           -0.2793021              -7.6002
       121        0.0466           -0.2704369              -7.3590
       122        0.0403           -0.2676116              -7.2821
       123        0.0284           -0.2608397              -7.0978
       124        0.0214           -0.2553956              -6.9497
       125        0.0185           -0.2526431              -6.8748
       126        0.0029           -0.2170413              -5.9060
       127        0.0004           -0.1805421              -4.9128
       128        0.0002           -0.1626452              -4.4258
       ...           ...                  ...                  ...
       216                          0.6563355              17.8598
      -------------------------------------------------------------
                  HL-Gap            0.0522419 Eh            1.4216 eV
             Fermi-level           -0.3414069 Eh           -9.2902 eV

     #   Z          covCN         q      C6AA      α(0)
     1   8 O        1.607    -0.553    24.083     6.623
     2   1 H        0.803     0.281     0.782     1.390
     3   1 H        0.804     0.280     0.785     1.391
     4   8 O        1.592    -0.554    24.120     6.628
     5   1 H        0.807     0.289     0.754     1.363
     6   1 H        0.784     0.281     0.787     1.395
     7   8 O        1.595    -0.548    23.984     6.609
     8   1 H        0.801     0.285     0.769     1.378
     9   1 H        0.794     0.281     0.783     1.391
    10   8 O        1.602    -0.561    24.269     6.649
    11   1 H        0.806     0.287     0.760     1.370
    12   1 H        0.796     0.279     0.790     1.397
    13   8 O        1.596    -0.558    24.207     6.640
    14   1 H        0.789     0.287     0.765     1.376
    15   1 H        0.807     0.300     0.719     1.332
    16   8 O        1.612    -0.546    23.938     6.604
    17   1 H        0.806     0.297     0.729     1.341
    18   1 H        0.807     0.291     0.747     1.358
    19   8 O        1.612    -0.549    24.004     6.613
    20   1 H        0.806     0.286     0.765     1.373
    21   1 H        0.806     0.305     0.707     1.320
    22   8 O        1.609    -0.560    24.244     6.645
    23   1 H        0.806     0.283     0.773     1.381
    24   1 H        0.803     0.285     0.767     1.376
    25   8 O        1.585    -0.562    24.317     6.655
    26   1 H        0.793     0.296     0.736     1.349
    27   1 H        0.792     0.284     0.773     1.382
    28   8 O        1.764    -0.526    23.419     6.535
    29   1 H        0.805     0.276     0.799     1.404
    30   1 H        0.807     0.296     0.732     1.344
    31   8 O        1.724    -0.381    20.459     6.107
    32  17 Cl       0.920     0.073    97.033    15.070
    33   1 H        0.806     0.323     0.654     1.271
    34   8 O        1.553    -0.485    22.644     6.420
    35  17 Cl       0.747    -0.098   101.969    15.446
    36   1 H        0.806     0.271     0.815     1.418
    37   8 O        1.255    -0.484    23.132     6.463
    38  17 Cl       0.604     0.025    97.497    15.095
    39   1 H        0.804     0.279     0.789     1.395
    40   8 O        1.732    -0.380    20.439     6.104
    41  17 Cl       0.943     0.072    97.049    15.071
    42   1 H        0.821     0.335     0.622     1.238
    43   6 C        2.967     0.079    26.238     8.402
    44   6 C        2.956    -0.038    28.933     8.823
    45   6 C        2.905    -0.054    29.340     8.882
    46   6 C        2.936     0.086    26.077     8.375
    47   6 C        2.939    -0.057    29.414     8.895
    48   6 C        2.929     0.090    25.991     8.361
    49   1 H        0.923     0.073     2.050     2.239
    50   1 H        0.921     0.060     2.196     2.318
    51   6 C        2.923     0.074    26.348     8.418
    52   6 C        2.957    -0.041    29.025     8.837
    53   6 C        2.928    -0.048    29.198     8.861
    54   6 C        3.012    -0.040    28.963     8.828
    55   1 H        0.928     0.095     1.827     2.114
    56   6 C        2.949    -0.032    28.805     8.803
    57   6 C        2.940     0.091    25.982     8.360
    58   1 H        0.927     0.078     1.996     2.209
    59   1 H        0.920     0.070     2.081     2.256
    60  17 Cl       1.035    -0.103   102.374    15.480
    61  17 Cl       1.027    -0.141   103.561    15.569
    62   7 N        2.713    -0.179    24.875     7.407
    63   1 H        0.861     0.184     1.194     1.711
    64   6 C        2.685     0.342    21.195     7.534
    65   8 O        0.871    -0.446    22.623     6.377
    66   7 N        2.684    -0.213    25.644     7.521
    67   1 H        0.860     0.207     1.072     1.622
    68   1 H        0.928     0.063     2.163     2.300
    69   1 H        0.922     0.123     1.588     1.971
    70  17 Cl       1.099    -0.108   102.555    15.493

 Mol. C6AA /au·bohr⁶  :      63771.896735
 Mol. C8AA /au·bohr⁸  :    1692877.741706
 Mol. α(0) /au        :        382.674622


Wiberg/Mayer (AO) data.
largest (>0.10) Wiberg bond orders for each atom

 ---------------------------------------------------------------------------
     #   Z sym  total        # sym  WBO       # sym  WBO       # sym  WBO
 ---------------------------------------------------------------------------
     1   8 O    1.841 --     3 H    0.921     2 H    0.920
     2   1 H    0.921 --     1 O    0.920
     3   1 H    0.922 --     1 O    0.921
     4   8 O    1.837 --     6 H    0.921     5 H    0.916
     5   1 H    0.916 --     4 O    0.916
     6   1 H    0.921 --     4 O    0.921
     7   8 O    1.838 --     9 H    0.920     8 H    0.918
     8   1 H    0.919 --     7 O    0.918
     9   1 H    0.921 --     7 O    0.920
    10   8 O    1.840 --    12 H    0.922    11 H    0.917
    11   1 H    0.917 --    10 O    0.917
    12   1 H    0.922 --    10 O    0.922
    13   8 O    1.826 --    14 H    0.917    15 H    0.909
    14   1 H    0.917 --    13 O    0.917
    15   1 H    0.910 --    13 O    0.909
    16   8 O    1.825 --    18 H    0.914    17 H    0.910
    17   1 H    0.911 --    16 O    0.910
    18   1 H    0.915 --    16 O    0.914
    19   8 O    1.825 --    20 H    0.918    21 H    0.907
    20   1 H    0.918 --    19 O    0.918
    21   1 H    0.907 --    19 O    0.907
    22   8 O    1.838 --    23 H    0.919    24 H    0.919
    23   1 H    0.920 --    22 O    0.919
    24   1 H    0.919 --    22 O    0.919
    25   8 O    1.824 --    27 H    0.918    26 H    0.896
    26   1 H    0.912 --    25 O    0.896
    27   1 H    0.919 --    25 O    0.918
    28   8 O    1.839 --    29 H    0.908    30 H    0.906
    29   1 H    0.917 --    28 O    0.908
    30   1 H    0.911 --    28 O    0.906
    31   8 O    1.889 --    32 Cl   0.997    33 H    0.891
    32  17 Cl   1.028 --    31 O    0.997
    33   1 H    0.894 --    31 O    0.891
    34   8 O    1.548 --    36 H    0.909    35 Cl   0.629
    35  17 Cl   0.647 --    34 O    0.629
    36   1 H    0.923 --    34 O    0.909
    37   8 O    1.399 --    39 H    0.901    38 Cl   0.488
    38  17 Cl   0.520 --    37 O    0.488
    39   1 H    0.919 --    37 O    0.901
    40   8 O    1.903 --    41 Cl   1.023    42 H    0.877
    41  17 Cl   1.026 --    40 O    1.023
    42   1 H    0.886 --    40 O    0.877
    43   6 C    3.867 --    44 C    1.383    48 C    1.314    60 Cl   1.005
    44   6 C    3.948 --    45 C    1.431    43 C    1.383    49 H    0.963
    45   6 C    3.944 --    44 C    1.431    46 C    1.370    50 H    0.959
    46   6 C    3.923 --    45 C    1.370    47 C    1.347    62 N    1.047
    47   6 C    3.930 --    48 C    1.424    46 C    1.347    69 H    0.930
    48   6 C    3.890 --    47 C    1.424    43 C    1.314    70 Cl   1.002
    49   1 H    0.993 --    44 C    0.963
    50   1 H    0.995 --    45 C    0.959
    51   6 C    3.881 --    52 C    1.416    53 C    1.301    66 N    1.015
    52   6 C    3.939 --    51 C    1.416    54 C    1.396    55 H    0.949
    53   6 C    3.911 --    56 C    1.473    51 C    1.301    68 H    0.966
    54   6 C    3.913 --    52 C    1.396    57 C    1.384    58 H    0.964
    55   1 H    0.987 --    52 C    0.949
    56   6 C    3.942 --    53 C    1.473    57 C    1.363    59 H    0.954
    57   6 C    3.844 --    54 C    1.384    56 C    1.363    61 Cl   0.965
    58   1 H    0.993 --    54 C    0.964
    59   1 H    0.992 --    56 C    0.954
    60  17 Cl   1.138 --    43 C    1.005
    61  17 Cl   1.084 --    57 C    0.965
    62   7 N    3.381 --    64 C    1.148    46 C    1.047    63 H    0.926
                            65 O    0.118
    63   1 H    0.965 --    62 N    0.926
    64   6 C    3.943 --    65 O    1.600    62 N    1.148    66 N    1.129
    65   8 O    1.955 --    64 C    1.600    62 N    0.118    66 N    0.114
    66   7 N    3.313 --    64 C    1.129    51 C    1.015    67 H    0.916
                            65 O    0.114
    67   1 H    0.955 --    66 N    0.916
    68   1 H    0.994 --    53 C    0.966
    69   1 H    0.982 --    47 C    0.930
    70  17 Cl   1.144 --    48 C    1.002
 ---------------------------------------------------------------------------

Topologies differ in total number of bonds
Writing topology from bond orders to xtbtopo.mol

molecular dipole:
                 x           y           z       tot (Debye)
 q only:       -3.246       1.178      -3.367
   full:       -2.851       1.768      -3.784      12.854
molecular quadrupole (traceless):
                xx          xy          yy          xz          yz          zz
 q only:      -27.562       3.196       9.393     -10.524      12.961      18.169
  q+dip:      -21.864       8.373      23.997     -26.528      23.803      -2.133
   full:      -22.324       9.447      22.094     -26.713      25.069       0.230


           -------------------------------------------------
          | TOTAL ENERGY             -142.863239825281 Eh   |
          | GRADIENT NORM               0.257011098782 Eh/α |
          | HOMO-LUMO GAP               1.421575281660 eV   |
           -------------------------------------------------

------------------------------------------------------------------------
 * finished run on 2025/04/07 at 09:40:47.401     
------------------------------------------------------------------------
 total:
 * wall-time:     0 d,  0 h,  0 min,  0.213 sec
 *  cpu-time:     0 d,  0 h,  0 min,  1.356 sec
 * ratio c/w:     6.375 speedup
 SCF:
 * wall-time:     0 d,  0 h,  0 min,  0.156 sec
 *  cpu-time:     0 d,  0 h,  0 min,  1.234 sec
 * ratio c/w:     7.895 speedup

