      -----------------------------------------------------------      
     |                   =====================                   |     
     |                           x T B                           |     
     |                   =====================                   |     
     |                         S. Grimme                         |     
     |          Mulliken Center for Theoretical Chemistry        |     
     |                    University of Bonn                     |     
      -----------------------------------------------------------      

   * xtb version 6.6.1 (8d0f1dd) compiled by 'stahn@M-Bot' on 2023-08-01

   xtb is free software: you can redistribute it and/or modify it under
   the terms of the GNU Lesser General Public License as published by
   the Free Software Foundation, either version 3 of the License, or
   (at your option) any later version.
   
   xtb is distributed in the hope that it will be useful,
   but WITHOUT ANY WARRANTY; without even the implied warranty of
   MERCHANTABILITY or FITNESS FOR A PARTICULAR PURPOSE.  See the
   GNU Lesser General Public License for more details.
   
   Cite this work as:
   * C. Bannwarth, E. Caldeweyher, S. Ehlert, A. Hansen, P. Pracht,
     J. Seibert, S. Spicher, S. Grimme, WIREs Comput. Mol. Sci., 2020, 11,
     e01493. DOI: 10.1002/wcms.1493
   
   for GFN2-xTB:
   * C. Bannwarth, S. Ehlert and S. Grimme., J. Chem. Theory Comput., 2019,
     15, 1652-1671. DOI: 10.1021/acs.jctc.8b01176
   for GFN1-xTB:
   * S. Grimme, C. Bannwarth, P. Shushkov, J. Chem. Theory Comput., 2017,
     13, 1989-2009. DOI: 10.1021/acs.jctc.7b00118
   for GFN0-xTB:
   * P. Pracht, E. Caldeweyher, S. Ehlert, S. Grimme, ChemRxiv, 2019, preprint.
     DOI: 10.26434/chemrxiv.8326202.v1
   for GFN-FF:
   * S. Spicher and S. Grimme, Angew. Chem. Int. Ed., 2020, 59, 15665-15673.
     DOI: 10.1002/anie.202004239
   
   for ALPB and GBSA implicit solvation:
   * S. Ehlert, M. Stahn, S. Spicher, S. Grimme, J. Chem. Theory Comput.,
     2021, 17, 4250-4261. DOI: 10.1021/acs.jctc.1c00471
   
   for DFT-D4:
   * E. Caldeweyher, C. Bannwarth and S. Grimme, J. Chem. Phys., 2017,
     147, 034112. DOI: 10.1063/1.4993215
   * E. Caldeweyher, S. Ehlert, A. Hansen, H. Neugebauer, S. Spicher,
     C. Bannwarth and S. Grimme, J. Chem. Phys., 2019, 150, 154122.
     DOI: 10.1063/1.5090222
   * E. Caldeweyher, J.-M. Mewes, S. Ehlert and S. Grimme, Phys. Chem. Chem. Phys.
     2020, 22, 8499-8512. DOI: 10.1039/D0CP00502A
   
   for sTDA-xTB:
   * S. Grimme and C. Bannwarth, J. Chem. Phys., 2016, 145, 054103.
     DOI: 10.1063/1.4959605
   
   in the mass-spec context:
   * V. Asgeirsson, C. Bauer and S. Grimme, Chem. Sci., 2017, 8, 4879.
     DOI: 10.1039/c7sc00601b
   * J. Koopman and S. Grimme, ACS Omega 2019, 4, 12, 15120-15133.
     DOI: 10.1021/acsomega.9b02011
   
   for metadynamics refer to:
   * S. Grimme, J. Chem. Theory Comput., 2019, 155, 2847-2862
     DOI: 10.1021/acs.jctc.9b00143
   
   for SPH calculations refer to:
   * S. Spicher and S. Grimme, J. Chem. Theory Comput., 2021, 17, 1701-1714
     DOI: 10.1021/acs.jctc.0c01306
   
   with help from (in alphabetical order)
   P. Atkinson, C. Bannwarth, F. Bohle, G. Brandenburg, E. Caldeweyher
   M. Checinski, S. Dohm, S. Ehlert, S. Ehrlich, I. Gerasimov, C. Hölzer
   A. Katbashev, J. Koopman, C. Lavigne, S. Lehtola, F. März, M. Müller,
   F. Musil, H. Neugebauer, J. Pisarek, C. Plett, P. Pracht, F. Pultar,
   J. Seibert, P. Shushkov, S. Spicher, M. Stahn, M. Steiner, T. Strunk,
   J. Stückrath, T. Rose, and J. Unsleber
   
 * started run on 2025/04/07 at 09:40:47.417     

           -------------------------------------------------
          |                Calculation Setup                |
           -------------------------------------------------

          program call               : xtb 229.xyz --input 229.inp
          hostname                   : serv11
          coordinate file            : 229.xyz
          omp threads                :                     8

   ID    Z sym.   atoms
    1    8 O      1, 4, 7, 10, 13, 16, 19, 22, 25, 28, 31, 34, 37, 40, 65
    2    1 H      2, 3, 5, 6, 8, 9, 11, 12, 14, 15, 17, 18, 20, 21, 23, 24,
                  26, 27, 29, 30, 33, 36, 39, 42, 49, 50, 55, 58, 59, 63,
                  67-69
    3   17 Cl     32, 35, 38, 41, 60, 61, 70
    4    6 C      43-48, 51-54, 56, 57, 64
    5    7 N      62, 66

molecular fragmentation (1/2 indicates fragments):
1112222222222222222222222222222222222222222222222222222222222222222222
# atoms in fragment 1/2:     3    67
 fragment masses (1/2) :       18.02      687.56
CMA distance (Bohr)    :  14.954
constraining FC (au)   :  0.0500

           -------------------------------------------------
          |                 G F N 2 - x T B                 |
           -------------------------------------------------

        Reference                      10.1021/acs.jctc.8b01176
      * Hamiltonian:
        H0-scaling (s, p, d)           1.850000    2.230000    2.230000
        zeta-weighting                 0.500000
      * Dispersion:
        s8                             2.700000
        a1                             0.520000
        a2                             5.000000
        s9                             5.000000
      * Repulsion:
        kExp                           1.500000    1.000000
        rExp                           1.000000
      * Coulomb:
        alpha                          2.000000
        third order                    shell-resolved
        anisotropic                    true
        a3                             3.000000
        a5                             4.000000
        cn-shift                       1.200000
        cn-exp                         4.000000
        max-rad                        5.000000

q/qsh data taken from xtbrestart
CAMM data taken from xtbrestart

          ...................................................
          :                      SETUP                      :
          :.................................................:
          :  # basis functions                 223          :
          :  # atomic orbitals                 216          :
          :  # shells                          114          :
          :  # electrons                       234          :
          :  max. iterations                   800          :
          :  Hamiltonian                  GFN2-xTB          :
          :  restarted?                       true          :
          :  GBSA solvation                  false          :
          :  PC potential                    false          :
          :  electronic temp.         6000.0000000     K    :
          :  accuracy                    1.0000000          :
          :  -> integral cutoff          0.2500000E+02      :
          :  -> integral neglect         0.1000000E-07      :
          :  -> SCF convergence          0.1000000E-05 Eh   :
          :  -> wf. convergence          0.1000000E-03 e    :
          :  Broyden damping             0.4000000          :
          ...................................................

 iter      E             dE          RMSdq      gap      omega  full diag
   1   -143.4087942 -0.143409E+03  0.396E+00    0.71       0.0  T
   2   -139.5736334  0.383516E+01  0.545E+00    0.20       1.0  T
   3   -143.3597339 -0.378610E+01  0.260E+00    0.20       1.0  T
   4   -143.6311156 -0.271382E+00  0.184E+00    0.47       1.0  T
   5   -143.6673540 -0.362384E-01  0.124E+00    0.05       1.0  T
   6   -143.8631696 -0.195816E+00  0.558E-01    0.20       1.0  T
   7   -143.8953504 -0.321808E-01  0.306E-01    0.28       1.0  T
   8   -143.8956467 -0.296242E-03  0.269E-01    0.28       1.0  T
   9   -143.8787824  0.168643E-01  0.471E-01    0.23       1.0  T
  10   -143.8998714 -0.210890E-01  0.962E-02    0.30       1.0  T
  11   -143.8993045  0.566916E-03  0.121E-01    0.29       1.0  T
  12   -143.8997476 -0.443103E-03  0.938E-02    0.30       1.0  T
  13   -143.8994924  0.255205E-03  0.103E-01    0.30       1.0  T
  14   -143.9003151 -0.822757E-03  0.464E-02    0.31       1.0  T
  15   -143.9004728 -0.157663E-03  0.277E-02    0.31       1.0  T
  16   -143.9005200 -0.472422E-04  0.150E-02    0.31       1.0  T
  17   -143.9004967  0.232905E-04  0.187E-02    0.31       1.0  T
  18   -143.9005319 -0.351601E-04  0.766E-03    0.31       1.6  T
  19   -143.9005381 -0.620698E-05  0.312E-03    0.31       3.8  T
  20   -143.9005384 -0.315214E-06  0.210E-03    0.31       5.7  T
  21   -143.9005384  0.666323E-07  0.220E-03    0.31       5.4  T
  22   -143.9005386 -0.231362E-06  0.105E-03    0.31      11.4  T
  23   -143.9005387 -0.850125E-07  0.464E-04    0.31      25.8  T
  24   -143.9005387  0.342709E-09  0.411E-04    0.31      29.1  T

   *** convergence criteria satisfied after 24 iterations ***

         #    Occupation            Energy/Eh            Energy/eV
      -------------------------------------------------------------
         1        2.0000           -1.0792628             -29.3682
       ...           ...                  ...                  ...
       111        1.9370           -0.4084279             -11.1139
       112        1.9046           -0.4002254             -10.8907
       113        1.8482           -0.3908296             -10.6350
       114        1.7901           -0.3840673             -10.4510
       115        1.7418           -0.3796130             -10.3298
       116        1.7199           -0.3778262             -10.2812
       117        1.6718           -0.3742730             -10.1845 (HOMO)
       118        1.4741           -0.3629244              -9.8757 (LUMO)
       119        0.0753           -0.2817578              -7.6670
       120        0.0732           -0.2812117              -7.6522
       121        0.0403           -0.2695227              -7.3341
       122        0.0357           -0.2671945              -7.2707
       ...           ...                  ...                  ...
       216                          0.6607917              17.9811
      -------------------------------------------------------------
                  HL-Gap            0.0113487 Eh            0.3088 eV
             Fermi-level           -0.3433392 Eh           -9.3427 eV

 SCC (total)                   0 d,  0 h,  0 min,  0.184 sec
 SCC setup                      ...        0 min,  0.000 sec (  0.157%)
 Dispersion                     ...        0 min,  0.001 sec (  0.345%)
 classical contributions        ...        0 min,  0.000 sec (  0.040%)
 integral evaluation            ...        0 min,  0.036 sec ( 19.645%)
 iterations                     ...        0 min,  0.135 sec ( 73.468%)
 molecular gradient             ...        0 min,  0.011 sec (  6.083%)
 printout                       ...        0 min,  0.000 sec (  0.227%)

         :::::::::::::::::::::::::::::::::::::::::::::::::::::
         ::                     SUMMARY                     ::
         :::::::::::::::::::::::::::::::::::::::::::::::::::::
         :: total energy            -142.810461196793 Eh    ::
         :: gradient norm              0.325684563621 Eh/a0 ::
         :: HOMO-LUMO gap              0.308812661638 eV    ::
         ::.................................................::
         :: SCC energy              -143.900538678210 Eh    ::
         :: -> isotropic ES            0.456990964476 Eh    ::
         :: -> anisotropic ES         -0.026032514196 Eh    ::
         :: -> anisotropic XC         -0.006364807020 Eh    ::
         :: -> dispersion             -0.058659654834 Eh    ::
         :: repulsion energy           1.088225492009 Eh    ::
         :: add. restraining           0.000000000000 Eh    ::
         :: total charge              -0.000000000000 e     ::
         :::::::::::::::::::::::::::::::::::::::::::::::::::::

           -------------------------------------------------
          |                Property Printout                |
           -------------------------------------------------

    * Orbital Energies and Occupations

         #    Occupation            Energy/Eh            Energy/eV
      -------------------------------------------------------------
         1        2.0000           -1.0792628             -29.3682
       ...           ...                  ...                  ...
       105        1.9813           -0.4319720             -11.7546
       106        1.9772           -0.4281243             -11.6499
       107        1.9761           -0.4272421             -11.6258
       108        1.9750           -0.4263417             -11.6013
       109        1.9614           -0.4179826             -11.3739
       110        1.9514           -0.4135216             -11.2525
       111        1.9370           -0.4084279             -11.1139
       112        1.9046           -0.4002254             -10.8907
       113        1.8482           -0.3908296             -10.6350
       114        1.7901           -0.3840673             -10.4510
       115        1.7418           -0.3796130             -10.3298
       116        1.7199           -0.3778262             -10.2812
       117        1.6718           -0.3742730             -10.1845 (HOMO)
       118        1.4741           -0.3629244              -9.8757 (LUMO)
       119        0.0753           -0.2817578              -7.6670
       120        0.0732           -0.2812117              -7.6522
       121        0.0403           -0.2695227              -7.3341
       122        0.0357           -0.2671945              -7.2707
       123        0.0314           -0.2646820              -7.2024
       124        0.0210           -0.2569946              -6.9932
       125        0.0076           -0.2374596              -6.4616
       126        0.0051           -0.2301018              -6.2614
       127        0.0007           -0.1928360              -5.2473
       128        0.0006           -0.1886850              -5.1344
       ...           ...                  ...                  ...
       216                          0.6607917              17.9811
      -------------------------------------------------------------
                  HL-Gap            0.0113487 Eh            0.3088 eV
             Fermi-level           -0.3433392 Eh           -9.3427 eV

     #   Z          covCN         q      C6AA      α(0)
     1   8 O        1.612    -0.561    24.279     6.650
     2   1 H        0.806     0.286     0.764     1.372
     3   1 H        0.806     0.286     0.764     1.373
     4   8 O        1.607    -0.562    24.288     6.651
     5   1 H        0.800     0.284     0.773     1.381
     6   1 H        0.807     0.294     0.740     1.351
     7   8 O        1.573    -0.537    23.749     6.576
     8   1 H        0.793     0.294     0.741     1.353
     9   1 H        0.780     0.279     0.794     1.402
    10   8 O        1.609    -0.565    24.355     6.661
    11   1 H        0.806     0.294     0.740     1.351
    12   1 H        0.804     0.286     0.765     1.374
    13   8 O        1.605    -0.573    24.545     6.686
    14   1 H        0.808     0.306     0.704     1.318
    15   1 H        0.797     0.292     0.748     1.359
    16   8 O        1.592    -0.561    24.291     6.651
    17   1 H        0.784     0.278     0.796     1.404
    18   1 H        0.808     0.298     0.728     1.340
    19   8 O        1.719    -0.508    23.041     6.481
    20   1 H        0.803     0.342     0.608     1.225
    21   1 H        0.801     0.311     0.689     1.304
    22   8 O        1.609    -0.561    24.282     6.651
    23   1 H        0.804     0.287     0.761     1.370
    24   1 H        0.805     0.286     0.766     1.375
    25   8 O        1.613    -0.570    24.480     6.678
    26   1 H        0.808     0.287     0.761     1.370
    27   1 H        0.806     0.282     0.776     1.384
    28   8 O        1.720    -0.526    23.433     6.536
    29   1 H        0.805     0.299     0.723     1.335
    30   1 H        0.800     0.340     0.612     1.229
    31   8 O        1.732    -0.363    20.129     6.058
    32  17 Cl       1.252     0.140    95.133    14.922
    33   1 H        0.823     0.337     0.618     1.233
    34   8 O        1.732    -0.388    20.593     6.127
    35  17 Cl       0.944     0.031    98.262    15.165
    36   1 H        0.806     0.316     0.676     1.291
    37   8 O        0.809    -0.563    25.256     6.737
    38  17 Cl       0.311    -0.227   100.387    15.260
    39   1 H        0.808     0.257     0.864     1.460
    40   8 O        1.742    -0.390    20.623     6.132
    41  17 Cl       0.937     0.059    97.433    15.101
    42   1 H        0.809     0.314     0.680     1.294
    43   6 C        2.950     0.060    26.650     8.467
    44   6 C        2.918    -0.033    28.823     8.804
    45   6 C        2.903    -0.040    28.990     8.828
    46   6 C        2.914     0.075    26.320     8.413
    47   6 C        3.005    -0.051    29.254     8.872
    48   6 C        2.912     0.100    25.791     8.328
    49   1 H        0.927     0.085     1.926     2.170
    50   1 H        0.923     0.076     2.021     2.223
    51   6 C        2.936     0.072    26.390     8.425
    52   6 C        2.938    -0.048    29.199     8.862
    53   6 C        2.945    -0.051    29.258     8.871
    54   6 C        2.999    -0.037    28.912     8.820
    55   1 H        0.924     0.089     1.889     2.150
    56   6 C        2.960    -0.032    28.793     8.801
    57   6 C        2.914     0.086    26.081     8.374
    58   1 H        0.924     0.068     2.106     2.269
    59   1 H        0.924     0.055     2.254     2.348
    60  17 Cl       1.003    -0.153   103.960    15.599
    61  17 Cl       0.952    -0.162   104.235    15.619
    62   7 N        2.715    -0.171    24.696     7.381
    63   1 H        0.860     0.185     1.184     1.704
    64   6 C        2.675     0.325    21.476     7.583
    65   8 O        0.860    -0.393    21.545     6.223
    66   7 N        2.688    -0.235    26.154     7.595
    67   1 H        0.860     0.174     1.250     1.751
    68   1 H        0.921     0.044     2.402     2.424
    69   1 H        0.926     0.098     1.803     2.100
    70  17 Cl       1.107    -0.096   102.153    15.463

 Mol. C6AA /au·bohr⁶  :      63711.904388
 Mol. C8AA /au·bohr⁸  :    1691619.563535
 Mol. α(0) /au        :        382.442111


Wiberg/Mayer (AO) data.
largest (>0.10) Wiberg bond orders for each atom

 ---------------------------------------------------------------------------
     #   Z sym  total        # sym  WBO       # sym  WBO       # sym  WBO
 ---------------------------------------------------------------------------
     1   8 O    1.836 --     2 H    0.918     3 H    0.918
     2   1 H    0.918 --     1 O    0.918
     3   1 H    0.918 --     1 O    0.918
     4   8 O    1.833 --     5 H    0.919     6 H    0.913
     5   1 H    0.919 --     4 O    0.919
     6   1 H    0.914 --     4 O    0.913
     7   8 O    1.832 --     9 H    0.920     8 H    0.906
     8   1 H    0.913 --     7 O    0.906
     9   1 H    0.922 --     7 O    0.920
    10   8 O    1.829 --    12 H    0.917    11 H    0.912
    11   1 H    0.914 --    10 O    0.912
    12   1 H    0.918 --    10 O    0.917
    13   8 O    1.815 --    15 H    0.912    14 H    0.903
    14   1 H    0.906 --    13 O    0.903
    15   1 H    0.915 --    13 O    0.912
    16   8 O    1.838 --    17 H    0.920    18 H    0.910
    17   1 H    0.923 --    16 O    0.920
    18   1 H    0.911 --    16 O    0.910
    19   8 O    1.804 --    21 H    0.897    20 H    0.861
    20   1 H    0.880 --    19 O    0.861
    21   1 H    0.902 --    19 O    0.897
    22   8 O    1.836 --    24 H    0.918    23 H    0.917
    23   1 H    0.917 --    22 O    0.917
    24   1 H    0.918 --    22 O    0.918
    25   8 O    1.833 --    26 H    0.916    27 H    0.904
    26   1 H    0.918 --    25 O    0.916
    27   1 H    0.920 --    25 O    0.904
    28   8 O    1.822 --    29 H    0.889    30 H    0.879
    29   1 H    0.902 --    28 O    0.889
    30   1 H    0.884 --    28 O    0.879
    31   8 O    1.911 --    32 Cl   1.016    33 H    0.883
    32  17 Cl   1.059 --    31 O    1.016
    33   1 H    0.885 --    31 O    0.883
    34   8 O    1.886 --    35 Cl   0.982    36 H    0.895
    35  17 Cl   1.024 --    34 O    0.982
    36   1 H    0.899 --    34 O    0.895
    37   8 O    0.968 --    39 H    0.930
    38  17 Cl   0.084
    39   1 H    0.933 --    37 O    0.930
    40   8 O    1.915 --    41 Cl   1.023    42 H    0.892
    41  17 Cl   1.033 --    40 O    1.023
    42   1 H    0.900 --    40 O    0.892
    43   6 C    3.851 --    44 C    1.379    48 C    1.334    60 Cl   0.957
    44   6 C    3.938 --    45 C    1.434    43 C    1.379    49 H    0.965
    45   6 C    3.941 --    44 C    1.434    46 C    1.370    50 H    0.960
    46   6 C    3.901 --    45 C    1.370    47 C    1.359    62 N    1.012
    47   6 C    3.941 --    48 C    1.416    46 C    1.359    69 H    0.953
    48   6 C    3.899 --    47 C    1.416    43 C    1.334    70 Cl   1.018
    49   1 H    0.991 --    44 C    0.965
    50   1 H    0.993 --    45 C    0.960
    51   6 C    3.915 --    52 C    1.379    53 C    1.296    66 N    1.089
    52   6 C    3.933 --    54 C    1.412    51 C    1.379    55 H    0.949
    53   6 C    3.950 --    56 C    1.508    51 C    1.296    68 H    0.958
    54   6 C    3.954 --    57 C    1.422    52 C    1.412    58 H    0.957
    55   1 H    0.989 --    52 C    0.949
    56   6 C    3.958 --    53 C    1.508    57 C    1.344    59 H    0.958
    57   6 C    3.859 --    54 C    1.422    56 C    1.344    61 Cl   0.945
    58   1 H    0.993 --    54 C    0.957
    59   1 H    0.994 --    56 C    0.958
    60  17 Cl   1.073 --    43 C    0.957
    61  17 Cl   1.061 --    57 C    0.945
    62   7 N    3.434 --    64 C    1.214    46 C    1.012    63 H    0.921
                            65 O    0.156
    63   1 H    0.964 --    62 N    0.921
    64   6 C    3.936 --    65 O    1.688    62 N    1.214    66 N    0.974
    65   8 O    2.041 --    64 C    1.688    62 N    0.156    66 N    0.118
    66   7 N    3.288 --    51 C    1.089    64 C    0.974    67 H    0.935
                            65 O    0.118
    67   1 H    0.969 --    66 N    0.935
    68   1 H    0.997 --    53 C    0.958
    69   1 H    0.989 --    47 C    0.953
    70  17 Cl   1.170 --    48 C    1.018
 ---------------------------------------------------------------------------

Topologies differ in total number of bonds
Writing topology from bond orders to xtbtopo.mol

molecular dipole:
                 x           y           z       tot (Debye)
 q only:       -2.885       4.049      -4.220
   full:       -2.985       4.739      -4.988      19.062
molecular quadrupole (traceless):
                xx          xy          yy          xz          yz          zz
 q only:      -26.491      25.959       1.242      -5.071     -13.197      25.249
  q+dip:        3.490      25.989      -3.818     -12.214      -9.735       0.328
   full:        2.842      26.564      -5.141     -12.649      -9.158       2.299


           -------------------------------------------------
          | TOTAL ENERGY             -142.810461196793 Eh   |
          | GRADIENT NORM               0.325684563621 Eh/α |
          | HOMO-LUMO GAP               0.308812661638 eV   |
           -------------------------------------------------

------------------------------------------------------------------------
 * finished run on 2025/04/07 at 09:40:47.673     
------------------------------------------------------------------------
 total:
 * wall-time:     0 d,  0 h,  0 min,  0.255 sec
 *  cpu-time:     0 d,  0 h,  0 min,  1.563 sec
 * ratio c/w:     6.139 speedup
 SCF:
 * wall-time:     0 d,  0 h,  0 min,  0.184 sec
 *  cpu-time:     0 d,  0 h,  0 min,  1.444 sec
 * ratio c/w:     7.842 speedup

