      -----------------------------------------------------------      
     |                   =====================                   |     
     |                           x T B                           |     
     |                   =====================                   |     
     |                         S. Grimme                         |     
     |          Mulliken Center for Theoretical Chemistry        |     
     |                    University of Bonn                     |     
      -----------------------------------------------------------      

   * xtb version 6.6.1 (8d0f1dd) compiled by 'stahn@M-Bot' on 2023-08-01

   xtb is free software: you can redistribute it and/or modify it under
   the terms of the GNU Lesser General Public License as published by
   the Free Software Foundation, either version 3 of the License, or
   (at your option) any later version.
   
   xtb is distributed in the hope that it will be useful,
   but WITHOUT ANY WARRANTY; without even the implied warranty of
   MERCHANTABILITY or FITNESS FOR A PARTICULAR PURPOSE.  See the
   GNU Lesser General Public License for more details.
   
   Cite this work as:
   * C. Bannwarth, E. Caldeweyher, S. Ehlert, A. Hansen, P. Pracht,
     J. Seibert, S. Spicher, S. Grimme, WIREs Comput. Mol. Sci., 2020, 11,
     e01493. DOI: 10.1002/wcms.1493
   
   for GFN2-xTB:
   * C. Bannwarth, S. Ehlert and S. Grimme., J. Chem. Theory Comput., 2019,
     15, 1652-1671. DOI: 10.1021/acs.jctc.8b01176
   for GFN1-xTB:
   * S. Grimme, C. Bannwarth, P. Shushkov, J. Chem. Theory Comput., 2017,
     13, 1989-2009. DOI: 10.1021/acs.jctc.7b00118
   for GFN0-xTB:
   * P. Pracht, E. Caldeweyher, S. Ehlert, S. Grimme, ChemRxiv, 2019, preprint.
     DOI: 10.26434/chemrxiv.8326202.v1
   for GFN-FF:
   * S. Spicher and S. Grimme, Angew. Chem. Int. Ed., 2020, 59, 15665-15673.
     DOI: 10.1002/anie.202004239
   
   for ALPB and GBSA implicit solvation:
   * S. Ehlert, M. Stahn, S. Spicher, S. Grimme, J. Chem. Theory Comput.,
     2021, 17, 4250-4261. DOI: 10.1021/acs.jctc.1c00471
   
   for DFT-D4:
   * E. Caldeweyher, C. Bannwarth and S. Grimme, J. Chem. Phys., 2017,
     147, 034112. DOI: 10.1063/1.4993215
   * E. Caldeweyher, S. Ehlert, A. Hansen, H. Neugebauer, S. Spicher,
     C. Bannwarth and S. Grimme, J. Chem. Phys., 2019, 150, 154122.
     DOI: 10.1063/1.5090222
   * E. Caldeweyher, J.-M. Mewes, S. Ehlert and S. Grimme, Phys. Chem. Chem. Phys.
     2020, 22, 8499-8512. DOI: 10.1039/D0CP00502A
   
   for sTDA-xTB:
   * S. Grimme and C. Bannwarth, J. Chem. Phys., 2016, 145, 054103.
     DOI: 10.1063/1.4959605
   
   in the mass-spec context:
   * V. Asgeirsson, C. Bauer and S. Grimme, Chem. Sci., 2017, 8, 4879.
     DOI: 10.1039/c7sc00601b
   * J. Koopman and S. Grimme, ACS Omega 2019, 4, 12, 15120-15133.
     DOI: 10.1021/acsomega.9b02011
   
   for metadynamics refer to:
   * S. Grimme, J. Chem. Theory Comput., 2019, 155, 2847-2862
     DOI: 10.1021/acs.jctc.9b00143
   
   for SPH calculations refer to:
   * S. Spicher and S. Grimme, J. Chem. Theory Comput., 2021, 17, 1701-1714
     DOI: 10.1021/acs.jctc.0c01306
   
   with help from (in alphabetical order)
   P. Atkinson, C. Bannwarth, F. Bohle, G. Brandenburg, E. Caldeweyher
   M. Checinski, S. Dohm, S. Ehlert, S. Ehrlich, I. Gerasimov, C. Hölzer
   A. Katbashev, J. Koopman, C. Lavigne, S. Lehtola, F. März, M. Müller,
   F. Musil, H. Neugebauer, J. Pisarek, C. Plett, P. Pracht, F. Pultar,
   J. Seibert, P. Shushkov, S. Spicher, M. Stahn, M. Steiner, T. Strunk,
   J. Stückrath, T. Rose, and J. Unsleber
   
 * started run on 2025/04/07 at 09:40:47.689     

           -------------------------------------------------
          |                Calculation Setup                |
           -------------------------------------------------

          program call               : xtb 239.xyz --input 239.inp
          hostname                   : serv11
          coordinate file            : 239.xyz
          omp threads                :                     8

   ID    Z sym.   atoms
    1    8 O      1, 4, 7, 10, 13, 16, 19, 22, 25, 28, 31, 34, 37, 40, 65
    2    1 H      2, 3, 5, 6, 8, 9, 11, 12, 14, 15, 17, 18, 20, 21, 23, 24,
                  26, 27, 29, 30, 33, 36, 39, 42, 49, 50, 55, 58, 59, 63,
                  67-69
    3   17 Cl     32, 35, 38, 41, 60, 61, 70
    4    6 C      43-48, 51-54, 56, 57, 64
    5    7 N      62, 66

molecular fragmentation (1/2 indicates fragments):
1112222222222222222222222222222222222222222222222222222222222222222222
# atoms in fragment 1/2:     3    67
 fragment masses (1/2) :       18.02      687.56
CMA distance (Bohr)    :  16.015
constraining FC (au)   :  0.0500

           -------------------------------------------------
          |                 G F N 2 - x T B                 |
           -------------------------------------------------

        Reference                      10.1021/acs.jctc.8b01176
      * Hamiltonian:
        H0-scaling (s, p, d)           1.850000    2.230000    2.230000
        zeta-weighting                 0.500000
      * Dispersion:
        s8                             2.700000
        a1                             0.520000
        a2                             5.000000
        s9                             5.000000
      * Repulsion:
        kExp                           1.500000    1.000000
        rExp                           1.000000
      * Coulomb:
        alpha                          2.000000
        third order                    shell-resolved
        anisotropic                    true
        a3                             3.000000
        a5                             4.000000
        cn-shift                       1.200000
        cn-exp                         4.000000
        max-rad                        5.000000

q/qsh data taken from xtbrestart
CAMM data taken from xtbrestart

          ...................................................
          :                      SETUP                      :
          :.................................................:
          :  # basis functions                 223          :
          :  # atomic orbitals                 216          :
          :  # shells                          114          :
          :  # electrons                       234          :
          :  max. iterations                   800          :
          :  Hamiltonian                  GFN2-xTB          :
          :  restarted?                       true          :
          :  GBSA solvation                  false          :
          :  PC potential                    false          :
          :  electronic temp.         6000.0000000     K    :
          :  accuracy                    1.0000000          :
          :  -> integral cutoff          0.2500000E+02      :
          :  -> integral neglect         0.1000000E-07      :
          :  -> SCF convergence          0.1000000E-05 Eh   :
          :  -> wf. convergence          0.1000000E-03 e    :
          :  Broyden damping             0.4000000          :
          ...................................................

 iter      E             dE          RMSdq      gap      omega  full diag
   1   -143.8341087 -0.143834E+03  0.346E+00    0.02       0.0  T
   2   -143.8210437  0.130650E-01  0.220E+00    0.06       1.0  T
   3   -142.8330294  0.988014E+00  0.330E+00    0.00       1.0  T
   4   -143.4956976 -0.662668E+00  0.165E+00    0.30       1.0  T
   5   -143.8745294 -0.378832E+00  0.379E-01    0.01       1.0  T
   6   -143.8785242 -0.399485E-02  0.244E-01    0.01       1.0  T
   7   -143.8794126 -0.888330E-03  0.209E-01    0.01       1.0  T
   8   -143.8821636 -0.275097E-02  0.116E-01    0.01       1.0  T
   9   -143.8818606  0.302921E-03  0.102E-01    0.01       1.0  T
  10   -143.8822333 -0.372667E-03  0.765E-02    0.01       1.0  T
  11   -143.8825949 -0.361557E-03  0.374E-02    0.01       1.0  T
  12   -143.8826748 -0.799083E-04  0.193E-02    0.01       1.0  T
  13   -143.8826809 -0.612951E-05  0.147E-02    0.01       1.0  T
  14   -143.8826908 -0.990093E-05  0.103E-02    0.01       1.2  T
  15   -143.8826950 -0.419765E-05  0.697E-03    0.01       1.7  T
  16   -143.8826971 -0.213388E-05  0.446E-03    0.01       2.7  T
  17   -143.8826983 -0.120389E-05  0.229E-03    0.01       5.2  T
  18   -143.8826985 -0.199559E-06  0.145E-03    0.01       8.3  T
  19   -143.8826986 -0.682827E-07  0.103E-03    0.01      11.6  T
  20   -143.8826986 -0.154706E-07  0.747E-04    0.01      16.0  T
  21   -143.8826986 -0.330576E-07  0.369E-04    0.01      32.4  T

   *** convergence criteria satisfied after 21 iterations ***

         #    Occupation            Energy/Eh            Energy/eV
      -------------------------------------------------------------
         1        2.0000           -1.0936518             -29.7598
       ...           ...                  ...                  ...
       111        1.9386           -0.4161575             -11.3242
       112        1.9287           -0.4132004             -11.2438
       113        1.8582           -0.3994474             -10.8695
       114        1.7448           -0.3870777             -10.5329
       115        1.7271           -0.3856162             -10.4932
       116        1.6967           -0.3832664             -10.4292
       117        1.6445           -0.3796598             -10.3311 (HOMO)
       118        1.6408           -0.3794148             -10.3244 (LUMO)
       119        0.0506           -0.2811763              -7.6512
       120        0.0477           -0.2800407              -7.6203
       121        0.0283           -0.2699172              -7.3448
       122        0.0265           -0.2686310              -7.3098
       ...           ...                  ...                  ...
       216                          0.6272725              17.0690
      -------------------------------------------------------------
                  HL-Gap            0.0002450 Eh            0.0067 eV
             Fermi-level           -0.3505539 Eh           -9.5391 eV

 SCC (total)                   0 d,  0 h,  0 min,  0.194 sec
 SCC setup                      ...        0 min,  0.000 sec (  0.176%)
 Dispersion                     ...        0 min,  0.001 sec (  0.370%)
 classical contributions        ...        0 min,  0.000 sec (  0.041%)
 integral evaluation            ...        0 min,  0.056 sec ( 28.623%)
 iterations                     ...        0 min,  0.126 sec ( 64.848%)
 molecular gradient             ...        0 min,  0.011 sec (  5.676%)
 printout                       ...        0 min,  0.000 sec (  0.224%)

         :::::::::::::::::::::::::::::::::::::::::::::::::::::
         ::                     SUMMARY                     ::
         :::::::::::::::::::::::::::::::::::::::::::::::::::::
         :: total energy            -142.847705567312 Eh    ::
         :: gradient norm              0.280800004538 Eh/a0 ::
         :: HOMO-LUMO gap              0.006667261092 eV    ::
         ::.................................................::
         :: SCC energy              -143.882698645637 Eh    ::
         :: -> isotropic ES            0.467025877408 Eh    ::
         :: -> anisotropic ES         -0.017430311326 Eh    ::
         :: -> anisotropic XC          0.005052164510 Eh    ::
         :: -> dispersion             -0.057035544328 Eh    ::
         :: repulsion energy           1.033302298024 Eh    ::
         :: add. restraining           0.000000000000 Eh    ::
         :: total charge               0.000000000000 e     ::
         :::::::::::::::::::::::::::::::::::::::::::::::::::::

           -------------------------------------------------
          |                Property Printout                |
           -------------------------------------------------

    * Orbital Energies and Occupations

         #    Occupation            Energy/Eh            Energy/eV
      -------------------------------------------------------------
         1        2.0000           -1.0936518             -29.7598
       ...           ...                  ...                  ...
       105        1.9800           -0.4378587             -11.9147
       106        1.9769           -0.4351055             -11.8398
       107        1.9727           -0.4318683             -11.7517
       108        1.9706           -0.4304515             -11.7132
       109        1.9694           -0.4296536             -11.6915
       110        1.9591           -0.4240744             -11.5397
       111        1.9386           -0.4161575             -11.3242
       112        1.9287           -0.4132004             -11.2438
       113        1.8582           -0.3994474             -10.8695
       114        1.7448           -0.3870777             -10.5329
       115        1.7271           -0.3856162             -10.4932
       116        1.6967           -0.3832664             -10.4292
       117        1.6445           -0.3796598             -10.3311 (HOMO)
       118        1.6408           -0.3794148             -10.3244 (LUMO)
       119        0.0506           -0.2811763              -7.6512
       120        0.0477           -0.2800407              -7.6203
       121        0.0283           -0.2699172              -7.3448
       122        0.0265           -0.2686310              -7.3098
       123        0.0221           -0.2651186              -7.2142
       124        0.0160           -0.2589400              -7.0461
       125        0.0095           -0.2488967              -6.7728
       126        0.0089           -0.2476893              -6.7400
       127        0.0004           -0.1898682              -5.1666
       128        0.0004           -0.1874284              -5.1002
       ...           ...                  ...                  ...
       216                          0.6272725              17.0690
      -------------------------------------------------------------
                  HL-Gap            0.0002450 Eh            0.0067 eV
             Fermi-level           -0.3505539 Eh           -9.5391 eV

     #   Z          covCN         q      C6AA      α(0)
     1   8 O        1.607    -0.556    24.154     6.633
     2   1 H        0.803     0.281     0.782     1.389
     3   1 H        0.804     0.283     0.775     1.383
     4   8 O        1.605    -0.559    24.228     6.643
     5   1 H        0.798     0.280     0.787     1.394
     6   1 H        0.807     0.292     0.744     1.355
     7   8 O        1.567    -0.567    24.434     6.670
     8   1 H        0.763     0.302     0.725     1.342
     9   1 H        0.804     0.268     0.825     1.426
    10   8 O        1.601    -0.560    24.247     6.646
    11   1 H        0.796     0.296     0.735     1.348
    12   1 H        0.806     0.285     0.769     1.378
    13   8 O        1.606    -0.549    24.009     6.613
    14   1 H        0.800     0.280     0.787     1.394
    15   1 H        0.806     0.284     0.769     1.378
    16   8 O        1.571    -0.550    24.050     6.617
    17   1 H        0.792     0.289     0.757     1.368
    18   1 H        0.779     0.278     0.797     1.405
    19   8 O        1.613    -0.568    24.424     6.670
    20   1 H        0.807     0.288     0.759     1.368
    21   1 H        0.806     0.296     0.732     1.344
    22   8 O        1.603    -0.553    24.084     6.623
    23   1 H        0.800     0.290     0.754     1.364
    24   1 H        0.803     0.294     0.741     1.352
    25   8 O        1.631    -0.571    24.493     6.680
    26   1 H        0.802     0.289     0.756     1.366
    27   1 H        0.807     0.300     0.721     1.334
    28   8 O        1.610    -0.564    24.350     6.660
    29   1 H        0.807     0.293     0.742     1.353
    30   1 H        0.803     0.284     0.771     1.380
    31   8 O        1.728    -0.344    19.774     6.004
    32  17 Cl       0.998     0.121    95.643    14.962
    33   1 H        0.802     0.328     0.644     1.261
    34   8 O        1.730    -0.376    20.369     6.094
    35  17 Cl       1.043     0.043    97.932    15.140
    36   1 H        0.803     0.328     0.642     1.258
    37   8 O        0.801    -0.550    24.963     6.697
    38  17 Cl       0.068    -0.179    97.978    15.065
    39   1 H        0.801     0.268     0.827     1.429
    40   8 O        1.732    -0.399    20.797     6.158
    41  17 Cl       0.947     0.033    98.200    15.161
    42   1 H        0.840     0.342     0.603     1.217
    43   6 C        2.901     0.074    26.355     8.417
    44   6 C        2.953    -0.037    28.914     8.820
    45   6 C        3.001    -0.064    29.571     8.920
    46   6 C        2.925     0.081    26.203     8.395
    47   6 C        2.984    -0.050    29.225     8.868
    48   6 C        2.916     0.094    25.904     8.346
    49   1 H        0.926     0.076     2.023     2.224
    50   1 H        0.929     0.089     1.891     2.150
    51   6 C        2.980     0.078    26.256     8.405
    52   6 C        2.906    -0.030    28.754     8.793
    53   6 C        2.945    -0.051    29.266     8.873
    54   6 C        2.954    -0.035    28.860     8.811
    55   1 H        0.922     0.108     1.714     2.047
    56   6 C        2.976    -0.046    29.137     8.854
    57   6 C        2.867     0.080    26.214     8.393
    58   1 H        0.926     0.083     1.944     2.180
    59   1 H        0.928     0.067     2.121     2.277
    60  17 Cl       0.923    -0.125   103.035    15.529
    61  17 Cl       0.963    -0.143   103.630    15.574
    62   7 N        2.684    -0.222    25.844     7.550
    63   1 H        0.860     0.185     1.183     1.704
    64   6 C        2.739     0.326    21.466     7.586
    65   8 O        0.859    -0.394    21.565     6.226
    66   7 N        2.710    -0.151    24.272     7.317
    67   1 H        0.860     0.200     1.108     1.649
    68   1 H        0.925     0.051     2.305     2.374
    69   1 H        0.928     0.107     1.726     2.054
    70  17 Cl       0.987    -0.119   102.879    15.518

 Mol. C6AA /au·bohr⁶  :      63632.544753
 Mol. C8AA /au·bohr⁸  :    1689450.296207
 Mol. α(0) /au        :        382.177876


Wiberg/Mayer (AO) data.
largest (>0.10) Wiberg bond orders for each atom

 ---------------------------------------------------------------------------
     #   Z sym  total        # sym  WBO       # sym  WBO       # sym  WBO
 ---------------------------------------------------------------------------
     1   8 O    1.840 --     2 H    0.920     3 H    0.920
     2   1 H    0.921 --     1 O    0.920
     3   1 H    0.920 --     1 O    0.920
     4   8 O    1.818 --     5 H    0.909     6 H    0.905
     5   1 H    0.922 --     4 O    0.909
     6   1 H    0.914 --     4 O    0.905
     7   8 O    1.829 --     9 H    0.927     8 H    0.892
     8   1 H    0.909 --     7 O    0.892
     9   1 H    0.928 --     7 O    0.927
    10   8 O    1.830 --    12 H    0.919    11 H    0.912
    11   1 H    0.912 --    10 O    0.912
    12   1 H    0.919 --    10 O    0.919
    13   8 O    1.836 --    14 H    0.920    15 H    0.917
    14   1 H    0.922 --    13 O    0.920
    15   1 H    0.919 --    13 O    0.917
    16   8 O    1.852 --    18 H    0.917    17 H    0.911
    17   1 H    0.916 --    16 O    0.911
    18   1 H    0.923 --    16 O    0.917
    19   8 O    1.828 --    20 H    0.916    21 H    0.911
    20   1 H    0.917 --    19 O    0.916
    21   1 H    0.912 --    19 O    0.911
    22   8 O    1.829 --    23 H    0.915    24 H    0.913
    23   1 H    0.916 --    22 O    0.915
    24   1 H    0.914 --    22 O    0.913
    25   8 O    1.848 --    26 H    0.910    27 H    0.908
    26   1 H    0.917 --    25 O    0.910
    27   1 H    0.910 --    25 O    0.908
    28   8 O    1.828 --    30 H    0.913    29 H    0.911
    29   1 H    0.914 --    28 O    0.911
    30   1 H    0.919 --    28 O    0.913
    31   8 O    1.926 --    32 Cl   1.037    33 H    0.886
    32  17 Cl   1.048 --    31 O    1.037
    33   1 H    0.890 --    31 O    0.886
    34   8 O    1.906 --    35 Cl   1.005    36 H    0.887
    35  17 Cl   1.087 --    34 O    1.005
    36   1 H    0.891 --    34 O    0.887
    37   8 O    0.927 --    39 H    0.925
    38  17 Cl   0.012
    39   1 H    0.927 --    37 O    0.925
    40   8 O    1.892 --    41 Cl   1.043    42 H    0.814
    41  17 Cl   1.061 --    40 O    1.043
    42   1 H    0.882 --    40 O    0.814
    43   6 C    3.854 --    48 C    1.372    44 C    1.350    60 Cl   0.967
    44   6 C    3.940 --    45 C    1.469    43 C    1.350    49 H    0.963
    45   6 C    3.921 --    44 C    1.469    46 C    1.286    50 H    0.957
    46   6 C    3.917 --    47 C    1.367    45 C    1.286    62 N    1.113
    47   6 C    3.930 --    48 C    1.402    46 C    1.367    69 H    0.953
    48   6 C    3.892 --    47 C    1.402    43 C    1.372    70 Cl   0.971
    49   1 H    0.992 --    44 C    0.963
    50   1 H    0.990 --    45 C    0.957
    51   6 C    3.915 --    52 C    1.399    53 C    1.318    66 N    1.037
    52   6 C    3.935 --    51 C    1.399    54 C    1.392    55 H    0.951
    53   6 C    3.953 --    56 C    1.506    51 C    1.318    68 H    0.961
    54   6 C    3.953 --    57 C    1.436    52 C    1.392    58 H    0.958
    55   1 H    0.985 --    52 C    0.951
    56   6 C    3.958 --    53 C    1.506    57 C    1.320    59 H    0.955
    57   6 C    3.864 --    54 C    1.436    56 C    1.320    61 Cl   0.961
    58   1 H    0.991 --    54 C    0.958
    59   1 H    0.994 --    56 C    0.955
    60  17 Cl   1.082 --    43 C    0.967
    61  17 Cl   1.153 --    57 C    0.961
    62   7 N    3.288 --    46 C    1.113    64 C    0.975    63 H    0.927
                            65 O    0.103
    63   1 H    0.964 --    62 N    0.927
    64   6 C    3.930 --    65 O    1.680    66 N    1.201    62 N    0.975
    65   8 O    2.000 --    64 C    1.680    66 N    0.134    62 N    0.103
    66   7 N    3.421 --    64 C    1.201    51 C    1.037    67 H    0.920
                            65 O    0.134
    67   1 H    0.959 --    66 N    0.920
    68   1 H    0.996 --    53 C    0.961
    69   1 H    0.987 --    47 C    0.953
    70  17 Cl   1.102 --    48 C    0.971
 ---------------------------------------------------------------------------

Topologies differ in total number of bonds
Writing topology from bond orders to xtbtopo.mol

molecular dipole:
                 x           y           z       tot (Debye)
 q only:       -3.167       1.216      -3.158
   full:       -2.528       0.997      -3.511      11.285
molecular quadrupole (traceless):
                xx          xy          yy          xz          yz          zz
 q only:      -38.556      21.291     -23.250       1.769     -44.053      61.806
  q+dip:      -18.843      24.399     -37.600      -4.932     -57.284      56.443
   full:      -17.831      25.118     -39.772      -4.910     -55.921      57.603


           -------------------------------------------------
          | TOTAL ENERGY             -142.847705567312 Eh   |
          | GRADIENT NORM               0.280800004538 Eh/α |
          | HOMO-LUMO GAP               0.006667261092 eV   |
           -------------------------------------------------

------------------------------------------------------------------------
 * finished run on 2025/04/07 at 09:40:47.967     
------------------------------------------------------------------------
 total:
 * wall-time:     0 d,  0 h,  0 min,  0.277 sec
 *  cpu-time:     0 d,  0 h,  0 min,  1.647 sec
 * ratio c/w:     5.946 speedup
 SCF:
 * wall-time:     0 d,  0 h,  0 min,  0.195 sec
 *  cpu-time:     0 d,  0 h,  0 min,  1.511 sec
 * ratio c/w:     7.753 speedup

