      -----------------------------------------------------------      
     |                   =====================                   |     
     |                           x T B                           |     
     |                   =====================                   |     
     |                         S. Grimme                         |     
     |          Mulliken Center for Theoretical Chemistry        |     
     |                    University of Bonn                     |     
      -----------------------------------------------------------      

   * xtb version 6.6.1 (8d0f1dd) compiled by 'stahn@M-Bot' on 2023-08-01

   xtb is free software: you can redistribute it and/or modify it under
   the terms of the GNU Lesser General Public License as published by
   the Free Software Foundation, either version 3 of the License, or
   (at your option) any later version.
   
   xtb is distributed in the hope that it will be useful,
   but WITHOUT ANY WARRANTY; without even the implied warranty of
   MERCHANTABILITY or FITNESS FOR A PARTICULAR PURPOSE.  See the
   GNU Lesser General Public License for more details.
   
   Cite this work as:
   * C. Bannwarth, E. Caldeweyher, S. Ehlert, A. Hansen, P. Pracht,
     J. Seibert, S. Spicher, S. Grimme, WIREs Comput. Mol. Sci., 2020, 11,
     e01493. DOI: 10.1002/wcms.1493
   
   for GFN2-xTB:
   * C. Bannwarth, S. Ehlert and S. Grimme., J. Chem. Theory Comput., 2019,
     15, 1652-1671. DOI: 10.1021/acs.jctc.8b01176
   for GFN1-xTB:
   * S. Grimme, C. Bannwarth, P. Shushkov, J. Chem. Theory Comput., 2017,
     13, 1989-2009. DOI: 10.1021/acs.jctc.7b00118
   for GFN0-xTB:
   * P. Pracht, E. Caldeweyher, S. Ehlert, S. Grimme, ChemRxiv, 2019, preprint.
     DOI: 10.26434/chemrxiv.8326202.v1
   for GFN-FF:
   * S. Spicher and S. Grimme, Angew. Chem. Int. Ed., 2020, 59, 15665-15673.
     DOI: 10.1002/anie.202004239
   
   for ALPB and GBSA implicit solvation:
   * S. Ehlert, M. Stahn, S. Spicher, S. Grimme, J. Chem. Theory Comput.,
     2021, 17, 4250-4261. DOI: 10.1021/acs.jctc.1c00471
   
   for DFT-D4:
   * E. Caldeweyher, C. Bannwarth and S. Grimme, J. Chem. Phys., 2017,
     147, 034112. DOI: 10.1063/1.4993215
   * E. Caldeweyher, S. Ehlert, A. Hansen, H. Neugebauer, S. Spicher,
     C. Bannwarth and S. Grimme, J. Chem. Phys., 2019, 150, 154122.
     DOI: 10.1063/1.5090222
   * E. Caldeweyher, J.-M. Mewes, S. Ehlert and S. Grimme, Phys. Chem. Chem. Phys.
     2020, 22, 8499-8512. DOI: 10.1039/D0CP00502A
   
   for sTDA-xTB:
   * S. Grimme and C. Bannwarth, J. Chem. Phys., 2016, 145, 054103.
     DOI: 10.1063/1.4959605
   
   in the mass-spec context:
   * V. Asgeirsson, C. Bauer and S. Grimme, Chem. Sci., 2017, 8, 4879.
     DOI: 10.1039/c7sc00601b
   * J. Koopman and S. Grimme, ACS Omega 2019, 4, 12, 15120-15133.
     DOI: 10.1021/acsomega.9b02011
   
   for metadynamics refer to:
   * S. Grimme, J. Chem. Theory Comput., 2019, 155, 2847-2862
     DOI: 10.1021/acs.jctc.9b00143
   
   for SPH calculations refer to:
   * S. Spicher and S. Grimme, J. Chem. Theory Comput., 2021, 17, 1701-1714
     DOI: 10.1021/acs.jctc.0c01306
   
   with help from (in alphabetical order)
   P. Atkinson, C. Bannwarth, F. Bohle, G. Brandenburg, E. Caldeweyher
   M. Checinski, S. Dohm, S. Ehlert, S. Ehrlich, I. Gerasimov, C. Hölzer
   A. Katbashev, J. Koopman, C. Lavigne, S. Lehtola, F. März, M. Müller,
   F. Musil, H. Neugebauer, J. Pisarek, C. Plett, P. Pracht, F. Pultar,
   J. Seibert, P. Shushkov, S. Spicher, M. Stahn, M. Steiner, T. Strunk,
   J. Stückrath, T. Rose, and J. Unsleber
   
 * started run on 2025/04/07 at 09:40:52.198     

           -------------------------------------------------
          |                Calculation Setup                |
           -------------------------------------------------

          program call               : xtb 247.xyz --input 247.inp
          hostname                   : serv11
          coordinate file            : 247.xyz
          omp threads                :                     8

   ID    Z sym.   atoms
    1    8 O      1, 4, 7, 10, 13, 16, 19, 22, 25, 28, 31, 34, 37, 40, 65
    2    1 H      2, 3, 5, 6, 8, 9, 11, 12, 14, 15, 17, 18, 20, 21, 23, 24,
                  26, 27, 29, 30, 33, 36, 39, 42, 49, 50, 55, 58, 59, 63,
                  67-69
    3   17 Cl     32, 35, 38, 41, 60, 61, 70
    4    6 C      43-48, 51-54, 56, 57, 64
    5    7 N      62, 66

molecular fragmentation (1/2 indicates fragments):
1112222222222222222222222222222222222222222222222222222222222222222222
# atoms in fragment 1/2:     3    67
 fragment masses (1/2) :       18.02      687.56
CMA distance (Bohr)    :  16.703
constraining FC (au)   :  0.0500

           -------------------------------------------------
          |                 G F N 2 - x T B                 |
           -------------------------------------------------

        Reference                      10.1021/acs.jctc.8b01176
      * Hamiltonian:
        H0-scaling (s, p, d)           1.850000    2.230000    2.230000
        zeta-weighting                 0.500000
      * Dispersion:
        s8                             2.700000
        a1                             0.520000
        a2                             5.000000
        s9                             5.000000
      * Repulsion:
        kExp                           1.500000    1.000000
        rExp                           1.000000
      * Coulomb:
        alpha                          2.000000
        third order                    shell-resolved
        anisotropic                    true
        a3                             3.000000
        a5                             4.000000
        cn-shift                       1.200000
        cn-exp                         4.000000
        max-rad                        5.000000

q/qsh data taken from xtbrestart
CAMM data taken from xtbrestart

          ...................................................
          :                      SETUP                      :
          :.................................................:
          :  # basis functions                 223          :
          :  # atomic orbitals                 216          :
          :  # shells                          114          :
          :  # electrons                       234          :
          :  max. iterations                   800          :
          :  Hamiltonian                  GFN2-xTB          :
          :  restarted?                       true          :
          :  GBSA solvation                  false          :
          :  PC potential                    false          :
          :  electronic temp.         6000.0000000     K    :
          :  accuracy                    1.0000000          :
          :  -> integral cutoff          0.2500000E+02      :
          :  -> integral neglect         0.1000000E-07      :
          :  -> SCF convergence          0.1000000E-05 Eh   :
          :  -> wf. convergence          0.1000000E-03 e    :
          :  Broyden damping             0.4000000          :
          ...................................................

 iter      E             dE          RMSdq      gap      omega  full diag
   1   -143.7507388 -0.143751E+03  0.473E+00    0.03       0.0  T
   2   -142.3849643  0.136577E+01  0.428E+00    0.21       1.0  T
   3   -143.4278817 -0.104292E+01  0.281E+00    0.05       1.0  T
   4   -143.6532601 -0.225378E+00  0.190E+00    0.35       1.0  T
   5   -143.6371909  0.160692E-01  0.163E+00    0.16       1.0  T
   6   -143.7367019 -0.995110E-01  0.132E+00    0.34       1.0  T
   7   -143.8292886 -0.925867E-01  0.857E-01    0.35       1.0  T
   8   -143.9162544 -0.869659E-01  0.259E-01    0.00       1.0  T
   9   -143.8825451  0.337094E-01  0.564E-01    0.34       1.0  T
  10   -143.8310494  0.514956E-01  0.834E-01    0.00       1.0  T
  11   -143.9144006 -0.833512E-01  0.225E-01    0.00       1.0  T
  12   -143.9195326 -0.513196E-02  0.969E-02    0.09       1.0  T
  13   -143.9202940 -0.761444E-03  0.525E-02    0.06       1.0  T
  14   -143.9205177 -0.223681E-03  0.185E-02    0.04       1.0  T
  15   -143.9203205  0.197271E-03  0.422E-02    0.06       1.0  T
  16   -143.9204280 -0.107563E-03  0.305E-02    0.05       1.0  T
  17   -143.9205428 -0.114769E-03  0.717E-03    0.03       1.7  T
  18   -143.9205242  0.185728E-04  0.134E-02    0.04       1.0  T
  19   -143.9205458 -0.215913E-04  0.271E-03    0.03       4.4  T
  20   -143.9205457  0.695446E-07  0.255E-03    0.03       4.7  T
  21   -143.9205463 -0.571736E-06  0.133E-03    0.03       9.0  T
  22   -143.9205458  0.480114E-06  0.225E-03    0.03       5.3  T
  23   -143.9205464 -0.620672E-06  0.426E-04    0.03      28.1  T
  24   -143.9205464  0.121163E-07  0.517E-04    0.03      23.1  T

   *** convergence criteria satisfied after 24 iterations ***

         #    Occupation            Energy/Eh            Energy/eV
      -------------------------------------------------------------
         1        2.0000           -1.0891388             -29.6370
       ...           ...                  ...                  ...
       111        1.9466           -0.4228502             -11.5063
       112        1.9213           -0.4152201             -11.2987
       113        1.8937           -0.4092261             -11.1356
       114        1.7996           -0.3962178             -10.7816
       115        1.7790           -0.3941355             -10.7250
       116        1.6334           -0.3828971             -10.4192
       117        1.6315           -0.3827809             -10.4160 (HOMO)
       118        1.6149           -0.3817484             -10.3879 (LUMO)
       119        0.1112           -0.3006966              -8.1824
       120        0.0428           -0.2818785              -7.6703
       121        0.0409           -0.2809875              -7.6461
       122        0.0267           -0.2727331              -7.4214
       ...           ...                  ...                  ...
       216                          0.7087519              19.2861
      -------------------------------------------------------------
                  HL-Gap            0.0010325 Eh            0.0281 eV
             Fermi-level           -0.3545085 Eh           -9.6467 eV

 SCC (total)                   0 d,  0 h,  0 min,  0.164 sec
 SCC setup                      ...        0 min,  0.000 sec (  0.250%)
 Dispersion                     ...        0 min,  0.001 sec (  0.458%)
 classical contributions        ...        0 min,  0.000 sec (  0.053%)
 integral evaluation            ...        0 min,  0.018 sec ( 11.072%)
 iterations                     ...        0 min,  0.133 sec ( 81.269%)
 molecular gradient             ...        0 min,  0.011 sec (  6.623%)
 printout                       ...        0 min,  0.000 sec (  0.235%)

         :::::::::::::::::::::::::::::::::::::::::::::::::::::
         ::                     SUMMARY                     ::
         :::::::::::::::::::::::::::::::::::::::::::::::::::::
         :: total energy            -142.861151186212 Eh    ::
         :: gradient norm              0.280102222290 Eh/a0 ::
         :: HOMO-LUMO gap              0.028094757918 eV    ::
         ::.................................................::
         :: SCC energy              -143.920546435578 Eh    ::
         :: -> isotropic ES            0.458714616661 Eh    ::
         :: -> anisotropic ES         -0.010932039519 Eh    ::
         :: -> anisotropic XC          0.008317262784 Eh    ::
         :: -> dispersion             -0.054232472683 Eh    ::
         :: repulsion energy           1.057974732897 Eh    ::
         :: add. restraining           0.000000000000 Eh    ::
         :: total charge              -0.000000000000 e     ::
         :::::::::::::::::::::::::::::::::::::::::::::::::::::

           -------------------------------------------------
          |                Property Printout                |
           -------------------------------------------------

    * Orbital Energies and Occupations

         #    Occupation            Energy/Eh            Energy/eV
      -------------------------------------------------------------
         1        2.0000           -1.0891388             -29.6370
       ...           ...                  ...                  ...
       105        1.9724           -0.4356563             -11.8548
       106        1.9688           -0.4332685             -11.7898
       107        1.9687           -0.4332198             -11.7885
       108        1.9618           -0.4293608             -11.6835
       109        1.9607           -0.4287937             -11.6681
       110        1.9569           -0.4269961             -11.6192
       111        1.9466           -0.4228502             -11.5063
       112        1.9213           -0.4152201             -11.2987
       113        1.8937           -0.4092261             -11.1356
       114        1.7996           -0.3962178             -10.7816
       115        1.7790           -0.3941355             -10.7250
       116        1.6334           -0.3828971             -10.4192
       117        1.6315           -0.3827809             -10.4160 (HOMO)
       118        1.6149           -0.3817484             -10.3879 (LUMO)
       119        0.1112           -0.3006966              -8.1824
       120        0.0428           -0.2818785              -7.6703
       121        0.0409           -0.2809875              -7.6461
       122        0.0267           -0.2727331              -7.4214
       123        0.0263           -0.2724826              -7.4146
       124        0.0164           -0.2633995              -7.1675
       125        0.0129           -0.2587530              -7.0410
       126        0.0052           -0.2413408              -6.5672
       127        0.0007           -0.2040078              -5.5513
       128        0.0002           -0.1795940              -4.8870
       ...           ...                  ...                  ...
       216                          0.7087519              19.2861
      -------------------------------------------------------------
                  HL-Gap            0.0010325 Eh            0.0281 eV
             Fermi-level           -0.3545085 Eh           -9.6467 eV

     #   Z          covCN         q      C6AA      α(0)
     1   8 O        1.612    -0.566    24.376     6.664
     2   1 H        0.807     0.283     0.774     1.382
     3   1 H        0.805     0.286     0.763     1.372
     4   8 O        1.611    -0.566    24.396     6.666
     5   1 H        0.803     0.288     0.757     1.367
     6   1 H        0.808     0.292     0.746     1.356
     7   8 O        1.601    -0.550    24.027     6.615
     8   1 H        0.794     0.290     0.755     1.366
     9   1 H        0.807     0.292     0.744     1.354
    10   8 O        1.603    -0.560    24.247     6.646
    11   1 H        0.803     0.285     0.770     1.378
    12   1 H        0.799     0.287     0.761     1.371
    13   8 O        1.602    -0.552    24.064     6.620
    14   1 H        0.798     0.284     0.772     1.381
    15   1 H        0.804     0.282     0.777     1.384
    16   8 O        1.588    -0.555    24.151     6.632
    17   1 H        0.802     0.280     0.786     1.393
    18   1 H        0.785     0.282     0.782     1.391
    19   8 O        1.608    -0.554    24.106     6.626
    20   1 H        0.802     0.289     0.755     1.365
    21   1 H        0.806     0.286     0.763     1.372
    22   8 O        1.611    -0.557    24.179     6.637
    23   1 H        0.807     0.290     0.750     1.360
    24   1 H        0.805     0.287     0.761     1.370
    25   8 O        1.597    -0.560    24.263     6.648
    26   1 H        0.798     0.290     0.754     1.365
    27   1 H        0.800     0.291     0.749     1.359
    28   8 O        1.601    -0.535    23.701     6.570
    29   1 H        0.802     0.288     0.758     1.368
    30   1 H        0.799     0.286     0.766     1.375
    31   8 O        2.010    -0.360    20.042     6.046
    32  17 Cl       0.915     0.043    97.906    15.138
    33   1 H        0.804     0.315     0.678     1.293
    34   8 O        1.694    -0.394    20.718     6.145
    35  17 Cl       0.891     0.041    97.948    15.141
    36   1 H        0.803     0.305     0.706     1.319
    37   8 O        0.788    -0.524    24.357     6.615
    38  17 Cl       0.294    -0.137    97.471    15.035
    39   1 H        0.788     0.262     0.852     1.451
    40   8 O        1.722    -0.389    20.622     6.131
    41  17 Cl       0.935     0.045    97.865    15.135
    42   1 H        0.798     0.324     0.653     1.270
    43   6 C        2.897     0.074    26.355     8.417
    44   6 C        3.050    -0.036    28.850     8.809
    45   6 C        2.907    -0.041    29.009     8.832
    46   6 C        2.920     0.088    26.041     8.368
    47   6 C        2.930    -0.039    28.971     8.827
    48   6 C        2.879     0.087    26.054     8.368
    49   1 H        0.925     0.085     1.924     2.169
    50   1 H        0.922     0.072     2.060     2.245
    51   6 C        2.936     0.094    25.907     8.348
    52   6 C        2.932    -0.050    29.231     8.867
    53   6 C        2.967    -0.058    29.432     8.899
    54   6 C        2.975    -0.035    28.856     8.812
    55   1 H        0.928     0.091     1.871     2.139
    56   6 C        2.948    -0.022    28.555     8.764
    57   6 C        2.894     0.077    26.290     8.407
    58   1 H        0.927     0.067     2.120     2.277
    59   1 H        0.920     0.070     2.087     2.259
    60  17 Cl       1.015    -0.109   102.554    15.493
    61  17 Cl       0.927    -0.179   104.779    15.660
    62   7 N        2.710    -0.170    24.670     7.377
    63   1 H        0.861     0.171     1.269     1.765
    64   6 C        2.681     0.324    21.500     7.588
    65   8 O        0.874    -0.375    21.176     6.170
    66   7 N        2.712    -0.178    24.855     7.404
    67   1 H        0.859     0.176     1.238     1.743
    68   1 H        0.928     0.054     2.276     2.359
    69   1 H        0.923     0.120     1.612     1.985
    70  17 Cl       0.927    -0.075   101.492    15.412

 Mol. C6AA /au·bohr⁶  :      63642.164217
 Mol. C8AA /au·bohr⁸  :    1688837.375172
 Mol. α(0) /au        :        382.236309


Wiberg/Mayer (AO) data.
largest (>0.10) Wiberg bond orders for each atom

 ---------------------------------------------------------------------------
     #   Z sym  total        # sym  WBO       # sym  WBO       # sym  WBO
 ---------------------------------------------------------------------------
     1   8 O    1.830 --     2 H    0.918     3 H    0.905
     2   1 H    0.920 --     1 O    0.918
     3   1 H    0.918 --     1 O    0.905
     4   8 O    1.809 --     5 H    0.906     6 H    0.895
     5   1 H    0.917 --     4 O    0.906
     6   1 H    0.915 --     4 O    0.895
     7   8 O    1.830 --     8 H    0.915     9 H    0.914
     8   1 H    0.916 --     7 O    0.915
     9   1 H    0.914 --     7 O    0.914
    10   8 O    1.836 --    11 H    0.919    12 H    0.917
    11   1 H    0.919 --    10 O    0.919
    12   1 H    0.917 --    10 O    0.917
    13   8 O    1.833 --    15 H    0.917    14 H    0.916
    14   1 H    0.919 --    13 O    0.916
    15   1 H    0.920 --    13 O    0.917
    16   8 O    1.839 --    17 H    0.920    18 H    0.918
    17   1 H    0.922 --    16 O    0.920
    18   1 H    0.920 --    16 O    0.918
    19   8 O    1.834 --    21 H    0.918    20 H    0.916
    20   1 H    0.916 --    19 O    0.916
    21   1 H    0.918 --    19 O    0.918
    22   8 O    1.833 --    24 H    0.917    23 H    0.915
    23   1 H    0.915 --    22 O    0.915
    24   1 H    0.917 --    22 O    0.917
    25   8 O    1.833 --    26 H    0.915    27 H    0.915
    26   1 H    0.916 --    25 O    0.915
    27   1 H    0.915 --    25 O    0.915
    28   8 O    1.827 --    30 H    0.914    29 H    0.913
    29   1 H    0.917 --    28 O    0.913
    30   1 H    0.918 --    28 O    0.914
    31   8 O    1.919 --    32 Cl   0.912    33 H    0.886    38 Cl   0.121
    32  17 Cl   0.984 --    31 O    0.912
    33   1 H    0.892 --    31 O    0.886
    34   8 O    1.834 --    35 Cl   0.928    36 H    0.904
    35  17 Cl   0.938 --    34 O    0.928
    36   1 H    0.905 --    34 O    0.904
    37   8 O    0.930 --    39 H    0.929
    38  17 Cl   0.194 --    31 O    0.121
    39   1 H    0.930 --    37 O    0.929
    40   8 O    1.885 --    41 Cl   1.012    42 H    0.855
    41  17 Cl   1.033 --    40 O    1.012
    42   1 H    0.893 --    40 O    0.855
    43   6 C    3.860 --    48 C    1.360    44 C    1.351    60 Cl   0.985
    44   6 C    3.947 --    45 C    1.482    43 C    1.351    49 H    0.958
    45   6 C    3.939 --    44 C    1.482    46 C    1.324    50 H    0.959
    46   6 C    3.916 --    47 C    1.422    45 C    1.324    62 N    1.018
    47   6 C    3.930 --    46 C    1.422    48 C    1.347    69 H    0.949
    48   6 C    3.879 --    43 C    1.360    47 C    1.347    70 Cl   1.012
    49   1 H    0.990 --    44 C    0.958
    50   1 H    0.992 --    45 C    0.959
    51   6 C    3.936 --    53 C    1.380    52 C    1.268    66 N    1.145
    52   6 C    3.943 --    54 C    1.525    51 C    1.268    55 H    0.952
    53   6 C    3.949 --    56 C    1.411    51 C    1.380    68 H    0.962
    54   6 C    3.966 --    52 C    1.525    57 C    1.334    58 H    0.963
    55   1 H    0.989 --    52 C    0.952
    56   6 C    3.962 --    57 C    1.438    53 C    1.411    59 H    0.956
    57   6 C    3.849 --    56 C    1.438    54 C    1.334    61 Cl   0.922
    58   1 H    0.993 --    54 C    0.963
    59   1 H    0.991 --    56 C    0.956
    60  17 Cl   1.107 --    43 C    0.985
    61  17 Cl   1.092 --    57 C    0.922
    62   7 N    3.404 --    64 C    1.179    46 C    1.018    63 H    0.935
                            65 O    0.156
    63   1 H    0.969 --    62 N    0.935
    64   6 C    3.940 --    65 O    1.697    62 N    1.179    66 N    0.999
    65   8 O    2.024 --    64 C    1.697    62 N    0.156    66 N    0.100
    66   7 N    3.338 --    51 C    1.145    64 C    0.999    67 H    0.930
                            65 O    0.100
    67   1 H    0.968 --    66 N    0.930
    68   1 H    0.996 --    53 C    0.962
    69   1 H    0.983 --    47 C    0.949
    70  17 Cl   1.148 --    48 C    1.012
 ---------------------------------------------------------------------------

Topologies differ in total number of bonds
Writing topology from bond orders to xtbtopo.mol

molecular dipole:
                 x           y           z       tot (Debye)
 q only:       -3.131       3.211      -3.702
   full:       -3.355       3.192      -3.473      14.712
molecular quadrupole (traceless):
                xx          xy          yy          xz          yz          zz
 q only:      -28.791     -22.170     -26.927     -17.470     -37.252      55.717
  q+dip:      -15.549     -43.343     -40.419     -18.536     -50.888      55.968
   full:      -15.446     -41.958     -41.558     -19.037     -49.232      57.003


           -------------------------------------------------
          | TOTAL ENERGY             -142.861151186212 Eh   |
          | GRADIENT NORM               0.280102222290 Eh/α |
          | HOMO-LUMO GAP               0.028094757918 eV   |
           -------------------------------------------------

------------------------------------------------------------------------
 * finished run on 2025/04/07 at 09:40:52.433     
------------------------------------------------------------------------
 total:
 * wall-time:     0 d,  0 h,  0 min,  0.234 sec
 *  cpu-time:     0 d,  0 h,  0 min,  1.435 sec
 * ratio c/w:     6.137 speedup
 SCF:
 * wall-time:     0 d,  0 h,  0 min,  0.165 sec
 *  cpu-time:     0 d,  0 h,  0 min,  1.304 sec
 * ratio c/w:     7.924 speedup

