      -----------------------------------------------------------      
     |                   =====================                   |     
     |                           x T B                           |     
     |                   =====================                   |     
     |                         S. Grimme                         |     
     |          Mulliken Center for Theoretical Chemistry        |     
     |                    University of Bonn                     |     
      -----------------------------------------------------------      

   * xtb version 6.6.1 (8d0f1dd) compiled by 'stahn@M-Bot' on 2023-08-01

   xtb is free software: you can redistribute it and/or modify it under
   the terms of the GNU Lesser General Public License as published by
   the Free Software Foundation, either version 3 of the License, or
   (at your option) any later version.
   
   xtb is distributed in the hope that it will be useful,
   but WITHOUT ANY WARRANTY; without even the implied warranty of
   MERCHANTABILITY or FITNESS FOR A PARTICULAR PURPOSE.  See the
   GNU Lesser General Public License for more details.
   
   Cite this work as:
   * C. Bannwarth, E. Caldeweyher, S. Ehlert, A. Hansen, P. Pracht,
     J. Seibert, S. Spicher, S. Grimme, WIREs Comput. Mol. Sci., 2020, 11,
     e01493. DOI: 10.1002/wcms.1493
   
   for GFN2-xTB:
   * C. Bannwarth, S. Ehlert and S. Grimme., J. Chem. Theory Comput., 2019,
     15, 1652-1671. DOI: 10.1021/acs.jctc.8b01176
   for GFN1-xTB:
   * S. Grimme, C. Bannwarth, P. Shushkov, J. Chem. Theory Comput., 2017,
     13, 1989-2009. DOI: 10.1021/acs.jctc.7b00118
   for GFN0-xTB:
   * P. Pracht, E. Caldeweyher, S. Ehlert, S. Grimme, ChemRxiv, 2019, preprint.
     DOI: 10.26434/chemrxiv.8326202.v1
   for GFN-FF:
   * S. Spicher and S. Grimme, Angew. Chem. Int. Ed., 2020, 59, 15665-15673.
     DOI: 10.1002/anie.202004239
   
   for ALPB and GBSA implicit solvation:
   * S. Ehlert, M. Stahn, S. Spicher, S. Grimme, J. Chem. Theory Comput.,
     2021, 17, 4250-4261. DOI: 10.1021/acs.jctc.1c00471
   
   for DFT-D4:
   * E. Caldeweyher, C. Bannwarth and S. Grimme, J. Chem. Phys., 2017,
     147, 034112. DOI: 10.1063/1.4993215
   * E. Caldeweyher, S. Ehlert, A. Hansen, H. Neugebauer, S. Spicher,
     C. Bannwarth and S. Grimme, J. Chem. Phys., 2019, 150, 154122.
     DOI: 10.1063/1.5090222
   * E. Caldeweyher, J.-M. Mewes, S. Ehlert and S. Grimme, Phys. Chem. Chem. Phys.
     2020, 22, 8499-8512. DOI: 10.1039/D0CP00502A
   
   for sTDA-xTB:
   * S. Grimme and C. Bannwarth, J. Chem. Phys., 2016, 145, 054103.
     DOI: 10.1063/1.4959605
   
   in the mass-spec context:
   * V. Asgeirsson, C. Bauer and S. Grimme, Chem. Sci., 2017, 8, 4879.
     DOI: 10.1039/c7sc00601b
   * J. Koopman and S. Grimme, ACS Omega 2019, 4, 12, 15120-15133.
     DOI: 10.1021/acsomega.9b02011
   
   for metadynamics refer to:
   * S. Grimme, J. Chem. Theory Comput., 2019, 155, 2847-2862
     DOI: 10.1021/acs.jctc.9b00143
   
   for SPH calculations refer to:
   * S. Spicher and S. Grimme, J. Chem. Theory Comput., 2021, 17, 1701-1714
     DOI: 10.1021/acs.jctc.0c01306
   
   with help from (in alphabetical order)
   P. Atkinson, C. Bannwarth, F. Bohle, G. Brandenburg, E. Caldeweyher
   M. Checinski, S. Dohm, S. Ehlert, S. Ehrlich, I. Gerasimov, C. Hölzer
   A. Katbashev, J. Koopman, C. Lavigne, S. Lehtola, F. März, M. Müller,
   F. Musil, H. Neugebauer, J. Pisarek, C. Plett, P. Pracht, F. Pultar,
   J. Seibert, P. Shushkov, S. Spicher, M. Stahn, M. Steiner, T. Strunk,
   J. Stückrath, T. Rose, and J. Unsleber
   
 * started run on 2025/04/07 at 09:40:47.984     

           -------------------------------------------------
          |                Calculation Setup                |
           -------------------------------------------------

          program call               : xtb 249.xyz --input 249.inp
          hostname                   : serv11
          coordinate file            : 249.xyz
          omp threads                :                     8

   ID    Z sym.   atoms
    1    8 O      1, 4, 7, 10, 13, 16, 19, 22, 25, 28, 31, 34, 37, 40, 65
    2    1 H      2, 3, 5, 6, 8, 9, 11, 12, 14, 15, 17, 18, 20, 21, 23, 24,
                  26, 27, 29, 30, 33, 36, 39, 42, 49, 50, 55, 58, 59, 63,
                  67-69
    3   17 Cl     32, 35, 38, 41, 60, 61, 70
    4    6 C      43-48, 51-54, 56, 57, 64
    5    7 N      62, 66

molecular fragmentation (1/2 indicates fragments):
1112222222222222222222222222222222222222222222222222222222222222222222
# atoms in fragment 1/2:     3    67
 fragment masses (1/2) :       18.02      687.56
CMA distance (Bohr)    :  16.843
constraining FC (au)   :  0.0500

           -------------------------------------------------
          |                 G F N 2 - x T B                 |
           -------------------------------------------------

        Reference                      10.1021/acs.jctc.8b01176
      * Hamiltonian:
        H0-scaling (s, p, d)           1.850000    2.230000    2.230000
        zeta-weighting                 0.500000
      * Dispersion:
        s8                             2.700000
        a1                             0.520000
        a2                             5.000000
        s9                             5.000000
      * Repulsion:
        kExp                           1.500000    1.000000
        rExp                           1.000000
      * Coulomb:
        alpha                          2.000000
        third order                    shell-resolved
        anisotropic                    true
        a3                             3.000000
        a5                             4.000000
        cn-shift                       1.200000
        cn-exp                         4.000000
        max-rad                        5.000000

q/qsh data taken from xtbrestart
CAMM data taken from xtbrestart

          ...................................................
          :                      SETUP                      :
          :.................................................:
          :  # basis functions                 223          :
          :  # atomic orbitals                 216          :
          :  # shells                          114          :
          :  # electrons                       234          :
          :  max. iterations                   800          :
          :  Hamiltonian                  GFN2-xTB          :
          :  restarted?                       true          :
          :  GBSA solvation                  false          :
          :  PC potential                    false          :
          :  electronic temp.         6000.0000000     K    :
          :  accuracy                    1.0000000          :
          :  -> integral cutoff          0.2500000E+02      :
          :  -> integral neglect         0.1000000E-07      :
          :  -> SCF convergence          0.1000000E-05 Eh   :
          :  -> wf. convergence          0.1000000E-03 e    :
          :  Broyden damping             0.4000000          :
          ...................................................

 iter      E             dE          RMSdq      gap      omega  full diag
   1   -143.8733438 -0.143873E+03  0.301E+00    0.01       0.0  T
   2   -143.8779683 -0.462446E-02  0.184E+00    0.14       1.0  T
   3   -143.7629533  0.115015E+00  0.145E+00    0.01       1.0  T
   4   -143.8691937 -0.106240E+00  0.608E-01    0.15       1.0  T
   5   -143.8272612  0.419325E-01  0.843E-01    0.01       1.0  T
   6   -143.8991910 -0.719298E-01  0.366E-01    0.16       1.0  T
   7   -143.9111269 -0.119358E-01  0.127E-01    0.01       1.0  T
   8   -143.9115074 -0.380504E-03  0.915E-02    0.01       1.0  T
   9   -143.9116488 -0.141408E-03  0.722E-02    0.01       1.0  T
  10   -143.9119402 -0.291420E-03  0.423E-02    0.01       1.0  T
  11   -143.9120170 -0.768236E-04  0.246E-02    0.01       1.0  T
  12   -143.9120382 -0.211742E-04  0.167E-02    0.01       1.0  T
  13   -143.9120510 -0.128381E-04  0.114E-02    0.01       1.0  T
  14   -143.9120562 -0.515710E-05  0.842E-03    0.01       1.4  T
  15   -143.9120594 -0.324503E-05  0.514E-03    0.01       2.3  T
  16   -143.9120609 -0.151288E-05  0.265E-03    0.01       4.5  T
  17   -143.9120612 -0.258162E-06  0.159E-03    0.01       7.5  T
  18   -143.9120613 -0.145225E-06  0.100E-03    0.01      11.9  T
  19   -143.9120614 -0.297587E-07  0.750E-04    0.01      15.9  T
  20   -143.9120614 -0.215406E-07  0.449E-04    0.01      26.6  T

   *** convergence criteria satisfied after 20 iterations ***

         #    Occupation            Energy/Eh            Energy/eV
      -------------------------------------------------------------
         1        2.0000           -1.0797766             -29.3822
       ...           ...                  ...                  ...
       111        1.9491           -0.4228728             -11.5070
       112        1.9285           -0.4162097             -11.3256
       113        1.8838           -0.4065403             -11.0625
       114        1.7877           -0.3941031             -10.7241
       115        1.7739           -0.3927545             -10.6874
       116        1.6960           -0.3862777             -10.5112
       117        1.6390           -0.3823617             -10.4046 (HOMO)
       118        1.6314           -0.3818775             -10.3914 (LUMO)
       119        0.0430           -0.2810821              -7.6486
       120        0.0353           -0.2772281              -7.5438
       121        0.0263           -0.2715891              -7.3903
       122        0.0235           -0.2694159              -7.3312
       ...           ...                  ...                  ...
       216                          0.6828171              18.5804
      -------------------------------------------------------------
                  HL-Gap            0.0004843 Eh            0.0132 eV
             Fermi-level           -0.3536156 Eh           -9.6224 eV

 SCC (total)                   0 d,  0 h,  0 min,  0.156 sec
 SCC setup                      ...        0 min,  0.000 sec (  0.228%)
 Dispersion                     ...        0 min,  0.001 sec (  0.456%)
 classical contributions        ...        0 min,  0.000 sec (  0.051%)
 integral evaluation            ...        0 min,  0.030 sec ( 18.983%)
 iterations                     ...        0 min,  0.114 sec ( 73.039%)
 molecular gradient             ...        0 min,  0.011 sec (  6.920%)
 printout                       ...        0 min,  0.000 sec (  0.272%)

         :::::::::::::::::::::::::::::::::::::::::::::::::::::
         ::                     SUMMARY                     ::
         :::::::::::::::::::::::::::::::::::::::::::::::::::::
         :: total energy            -142.891435716657 Eh    ::
         :: gradient norm              0.237560086288 Eh/a0 ::
         :: HOMO-LUMO gap              0.013177165069 eV    ::
         ::.................................................::
         :: SCC energy              -143.912061388426 Eh    ::
         :: -> isotropic ES            0.459767376807 Eh    ::
         :: -> anisotropic ES         -0.010976600000 Eh    ::
         :: -> anisotropic XC          0.008292573553 Eh    ::
         :: -> dispersion             -0.053108103224 Eh    ::
         :: repulsion energy           1.019282487387 Eh    ::
         :: add. restraining           0.000000000000 Eh    ::
         :: total charge               0.000000000000 e     ::
         :::::::::::::::::::::::::::::::::::::::::::::::::::::

           -------------------------------------------------
          |                Property Printout                |
           -------------------------------------------------

    * Orbital Energies and Occupations

         #    Occupation            Energy/Eh            Energy/eV
      -------------------------------------------------------------
         1        2.0000           -1.0797766             -29.3822
       ...           ...                  ...                  ...
       105        1.9768           -0.4380482             -11.9199
       106        1.9768           -0.4380474             -11.9199
       107        1.9679           -0.4318137             -11.7502
       108        1.9662           -0.4308274             -11.7234
       109        1.9606           -0.4278684             -11.6429
       110        1.9583           -0.4267663             -11.6129
       111        1.9491           -0.4228728             -11.5070
       112        1.9285           -0.4162097             -11.3256
       113        1.8838           -0.4065403             -11.0625
       114        1.7877           -0.3941031             -10.7241
       115        1.7739           -0.3927545             -10.6874
       116        1.6960           -0.3862777             -10.5112
       117        1.6390           -0.3823617             -10.4046 (HOMO)
       118        1.6314           -0.3818775             -10.3914 (LUMO)
       119        0.0430           -0.2810821              -7.6486
       120        0.0353           -0.2772281              -7.5438
       121        0.0263           -0.2715891              -7.3903
       122        0.0235           -0.2694159              -7.3312
       123        0.0154           -0.2612925              -7.1101
       124        0.0140           -0.2594759              -7.0607
       125        0.0096           -0.2523072              -6.8656
       126        0.0038           -0.2347341              -6.3874
       127        0.0003           -0.1844933              -5.0203
       128        0.0002           -0.1811212              -4.9286
       ...           ...                  ...                  ...
       216                          0.6828171              18.5804
      -------------------------------------------------------------
                  HL-Gap            0.0004843 Eh            0.0132 eV
             Fermi-level           -0.3536156 Eh           -9.6224 eV

     #   Z          covCN         q      C6AA      α(0)
     1   8 O        1.612    -0.568    24.439     6.672
     2   1 H        0.807     0.283     0.773     1.381
     3   1 H        0.805     0.291     0.747     1.358
     4   8 O        1.611    -0.571    24.501     6.681
     5   1 H        0.803     0.288     0.757     1.367
     6   1 H        0.808     0.296     0.733     1.345
     7   8 O        1.609    -0.560    24.257     6.647
     8   1 H        0.801     0.283     0.775     1.383
     9   1 H        0.807     0.291     0.749     1.359
    10   8 O        1.601    -0.557    24.193     6.638
    11   1 H        0.801     0.284     0.772     1.381
    12   1 H        0.801     0.286     0.765     1.374
    13   8 O        1.593    -0.551    24.061     6.620
    14   1 H        0.788     0.284     0.773     1.383
    15   1 H        0.804     0.283     0.775     1.383
    16   8 O        1.596    -0.555    24.156     6.633
    17   1 H        0.802     0.282     0.777     1.385
    18   1 H        0.794     0.277     0.796     1.403
    19   8 O        1.606    -0.552    24.073     6.622
    20   1 H        0.802     0.288     0.759     1.368
    21   1 H        0.804     0.284     0.772     1.380
    22   8 O        1.612    -0.562    24.304     6.654
    23   1 H        0.807     0.289     0.756     1.366
    24   1 H        0.805     0.282     0.777     1.385
    25   8 O        1.602    -0.563    24.334     6.658
    26   1 H        0.801     0.284     0.773     1.382
    27   1 H        0.800     0.296     0.733     1.345
    28   8 O        1.602    -0.541    23.832     6.588
    29   1 H        0.798     0.293     0.742     1.354
    30   1 H        0.803     0.281     0.781     1.388
    31   8 O        1.865    -0.357    19.984     6.037
    32  17 Cl       0.927     0.044    97.865    15.135
    33   1 H        0.805     0.321     0.661     1.277
    34   8 O        1.737    -0.351    19.891     6.022
    35  17 Cl       0.939     0.073    97.041    15.071
    36   1 H        0.809     0.326     0.646     1.262
    37   8 O        0.791    -0.527    24.420     6.624
    38  17 Cl       0.135    -0.207    98.879    15.135
    39   1 H        0.791     0.260     0.859     1.458
    40   8 O        1.726    -0.373    20.314     6.086
    41  17 Cl       0.936     0.050    97.689    15.121
    42   1 H        0.798     0.332     0.634     1.251
    43   6 C        2.907     0.083    26.157     8.386
    44   6 C        2.998    -0.034    28.829     8.808
    45   6 C        2.901    -0.048    29.193     8.859
    46   6 C        2.915     0.072    26.397     8.425
    47   6 C        2.955    -0.051    29.256     8.872
    48   6 C        2.881     0.098    25.835     8.333
    49   1 H        0.924     0.083     1.948     2.182
    50   1 H        0.919     0.066     2.129     2.282
    51   6 C        2.913     0.074    26.355     8.418
    52   6 C        2.940    -0.036    28.906     8.818
    53   6 C        2.924    -0.046    29.149     8.854
    54   6 C        2.980    -0.030    28.741     8.794
    55   1 H        0.928     0.102     1.768     2.079
    56   6 C        2.923    -0.027    28.666     8.780
    57   6 C        2.902     0.080    26.209     8.394
    58   1 H        0.927     0.083     1.951     2.184
    59   1 H        0.918     0.082     1.963     2.191
    60  17 Cl       0.983    -0.112   102.664    15.501
    61  17 Cl       0.961    -0.172   104.566    15.644
    62   7 N        2.712    -0.181    24.918     7.414
    63   1 H        0.861     0.181     1.206     1.720
    64   6 C        2.685     0.348    21.088     7.515
    65   8 O        0.861    -0.380    21.284     6.185
    66   7 N        2.714    -0.231    26.054     7.581
    67   1 H        0.860     0.173     1.254     1.754
    68   1 H        0.927     0.055     2.259     2.350
    69   1 H        0.923     0.118     1.630     1.996
    70  17 Cl       0.952    -0.084   101.782    15.435

 Mol. C6AA /au·bohr⁶  :      63607.801947
 Mol. C8AA /au·bohr⁸  :    1688582.735068
 Mol. α(0) /au        :        382.114230


Wiberg/Mayer (AO) data.
largest (>0.10) Wiberg bond orders for each atom

 ---------------------------------------------------------------------------
     #   Z sym  total        # sym  WBO       # sym  WBO       # sym  WBO
 ---------------------------------------------------------------------------
     1   8 O    1.829 --     2 H    0.919     3 H    0.902
     2   1 H    0.920 --     1 O    0.919
     3   1 H    0.915 --     1 O    0.902
     4   8 O    1.829 --     5 H    0.916     6 H    0.909
     5   1 H    0.917 --     4 O    0.916
     6   1 H    0.912 --     4 O    0.909
     7   8 O    1.836 --     8 H    0.916     9 H    0.915
     8   1 H    0.920 --     7 O    0.916
     9   1 H    0.915 --     7 O    0.915
    10   8 O    1.837 --    11 H    0.919    12 H    0.914
    11   1 H    0.919 --    10 O    0.919
    12   1 H    0.918 --    10 O    0.914
    13   8 O    1.839 --    15 H    0.920    14 H    0.919
    14   1 H    0.919 --    13 O    0.919
    15   1 H    0.920 --    13 O    0.920
    16   8 O    1.830 --    18 H    0.916    17 H    0.913
    17   1 H    0.920 --    16 O    0.913
    18   1 H    0.923 --    16 O    0.916
    19   8 O    1.836 --    21 H    0.919    20 H    0.917
    20   1 H    0.917 --    19 O    0.917
    21   1 H    0.919 --    19 O    0.919
    22   8 O    1.837 --    24 H    0.920    23 H    0.917
    23   1 H    0.917 --    22 O    0.917
    24   1 H    0.920 --    22 O    0.920
    25   8 O    1.832 --    26 H    0.919    27 H    0.912
    26   1 H    0.919 --    25 O    0.919
    27   1 H    0.912 --    25 O    0.912
    28   8 O    1.834 --    30 H    0.921    29 H    0.913
    29   1 H    0.914 --    28 O    0.913
    30   1 H    0.921 --    28 O    0.921
    31   8 O    1.927 --    32 Cl   0.964    33 H    0.887
    32  17 Cl   1.022 --    31 O    0.964
    33   1 H    0.894 --    31 O    0.887
    34   8 O    1.936 --    35 Cl   1.047    36 H    0.888
    35  17 Cl   1.054 --    34 O    1.047
    36   1 H    0.893 --    34 O    0.888
    37   8 O    0.931 --    39 H    0.931
    38  17 Cl   0.133
    39   1 H    0.931 --    37 O    0.931
    40   8 O    1.907 --    41 Cl   1.026    42 H    0.876
    41  17 Cl   1.041 --    40 O    1.026
    42   1 H    0.889 --    40 O    0.876
    43   6 C    3.871 --    44 C    1.409    48 C    1.314    60 Cl   0.985
    44   6 C    3.950 --    45 C    1.428    43 C    1.409    49 H    0.959
    45   6 C    3.931 --    44 C    1.428    46 C    1.361    50 H    0.962
    46   6 C    3.916 --    47 C    1.378    45 C    1.361    62 N    1.024
    47   6 C    3.928 --    48 C    1.398    46 C    1.378    69 H    0.944
    48   6 C    3.880 --    47 C    1.398    43 C    1.314    70 Cl   1.011
    49   1 H    0.991 --    44 C    0.959
    50   1 H    0.993 --    45 C    0.962
    51   6 C    3.927 --    52 C    1.447    53 C    1.312    66 N    1.032
    52   6 C    3.939 --    51 C    1.447    54 C    1.362    55 H    0.951
    53   6 C    3.934 --    56 C    1.464    51 C    1.312    68 H    0.968
                            54 C    0.104
    54   6 C    3.947 --    57 C    1.456    52 C    1.362    58 H    0.961
                            53 C    0.104
    55   1 H    0.988 --    52 C    0.951
    56   6 C    3.941 --    53 C    1.464    57 C    1.358    59 H    0.959
    57   6 C    3.864 --    54 C    1.456    56 C    1.358    61 Cl   0.928
    58   1 H    0.991 --    54 C    0.961
    59   1 H    0.991 --    56 C    0.959
    60  17 Cl   1.109 --    43 C    0.985
    61  17 Cl   1.064 --    57 C    0.928
    62   7 N    3.399 --    64 C    1.166    46 C    1.024    63 H    0.934
                            65 O    0.158
    63   1 H    0.966 --    62 N    0.934
    64   6 C    3.946 --    65 O    1.703    62 N    1.166    66 N    1.026
    65   8 O    2.049 --    64 C    1.703    62 N    0.158    66 N    0.111
    66   7 N    3.250 --    51 C    1.032    64 C    1.026    67 H    0.937
                            65 O    0.111
    67   1 H    0.969 --    66 N    0.937
    68   1 H    0.995 --    53 C    0.968
    69   1 H    0.984 --    47 C    0.944
    70  17 Cl   1.150 --    48 C    1.011
 ---------------------------------------------------------------------------

Topologies differ in total number of bonds
Writing topology from bond orders to xtbtopo.mol

molecular dipole:
                 x           y           z       tot (Debye)
 q only:       -2.975       1.275      -4.954
   full:       -2.712       0.466      -4.780      14.018
molecular quadrupole (traceless):
                xx          xy          yy          xz          yz          zz
 q only:      -24.394      -9.658     -15.759     -25.656     -35.757      40.153
  q+dip:       -5.864     -23.951     -29.249     -26.122     -47.750      35.113
   full:       -5.950     -22.722     -30.316     -27.121     -45.959      36.267


           -------------------------------------------------
          | TOTAL ENERGY             -142.891435716657 Eh   |
          | GRADIENT NORM               0.237560086288 Eh/α |
          | HOMO-LUMO GAP               0.013177165069 eV   |
           -------------------------------------------------

------------------------------------------------------------------------
 * finished run on 2025/04/07 at 09:40:48.215     
------------------------------------------------------------------------
 total:
 * wall-time:     0 d,  0 h,  0 min,  0.231 sec
 *  cpu-time:     0 d,  0 h,  0 min,  1.361 sec
 * ratio c/w:     5.891 speedup
 SCF:
 * wall-time:     0 d,  0 h,  0 min,  0.157 sec
 *  cpu-time:     0 d,  0 h,  0 min,  1.231 sec
 * ratio c/w:     7.854 speedup

