 Entering Gaussian System, Link 0=g16
 Input=ts.gjf
 Output=ts.log
 Initial command:
 /share/apps/g16.a03/g16/l1.exe "/tmp/Gau-6504.inp" -scrdir="/tmp/"
 Entering Link 1 = /share/apps/g16.a03/g16/l1.exe PID=      6506.
  
 Copyright (c) 1988,1990,1992,1993,1995,1998,2003,2009,2016,
            Gaussian, Inc.  All Rights Reserved.
  
 This is part of the Gaussian(R) 16 program.  It is based on
 the Gaussian(R) 09 system (copyright 2009, Gaussian, Inc.),
 the Gaussian(R) 03 system (copyright 2003, Gaussian, Inc.),
 the Gaussian(R) 98 system (copyright 1998, Gaussian, Inc.),
 the Gaussian(R) 94 system (copyright 1995, Gaussian, Inc.),
 the Gaussian 92(TM) system (copyright 1992, Gaussian, Inc.),
 the Gaussian 90(TM) system (copyright 1990, Gaussian, Inc.),
 the Gaussian 88(TM) system (copyright 1988, Gaussian, Inc.),
 the Gaussian 86(TM) system (copyright 1986, Carnegie Mellon
 University), and the Gaussian 82(TM) system (copyright 1983,
 Carnegie Mellon University). Gaussian is a federally registered
 trademark of Gaussian, Inc.
  
 This software contains proprietary and confidential information,
 including trade secrets, belonging to Gaussian, Inc.
  
 This software is provided under written license and may be
 used, copied, transmitted, or stored only in accord with that
 written license.
  
 The following legend is applicable only to US Government
 contracts under FAR:
  
                    RESTRICTED RIGHTS LEGEND
  
 Use, reproduction and disclosure by the US Government is
 subject to restrictions as set forth in subparagraphs (a)
 and (c) of the Commercial Computer Software - Restricted
 Rights clause in FAR 52.227-19.
  
 Gaussian, Inc.
 340 Quinnipiac St., Bldg. 40, Wallingford CT 06492
  
  
 ---------------------------------------------------------------
 Warning -- This program may not be used in any manner that
 competes with the business of Gaussian, Inc. or will provide
 assistance to any competitor of Gaussian, Inc.  The licensee
 of this program is prohibited from giving any competitor of
 Gaussian, Inc. access to this program.  By using this program,
 the user acknowledges that Gaussian, Inc. is engaged in the
 business of creating and licensing software in the field of
 computational chemistry and represents and warrants to the
 licensee that it is not a competitor of Gaussian, Inc. and that
 it will not use this program in any manner prohibited above.
 ---------------------------------------------------------------
  

 Cite this work as:
 Gaussian 16, Revision A.03,
 M. J. Frisch, G. W. Trucks, H. B. Schlegel, G. E. Scuseria, 
 M. A. Robb, J. R. Cheeseman, G. Scalmani, V. Barone, 
 G. A. Petersson, H. Nakatsuji, X. Li, M. Caricato, A. V. Marenich, 
 J. Bloino, B. G. Janesko, R. Gomperts, B. Mennucci, H. P. Hratchian, 
 J. V. Ortiz, A. F. Izmaylov, J. L. Sonnenberg, D. Williams-Young, 
 F. Ding, F. Lipparini, F. Egidi, J. Goings, B. Peng, A. Petrone, 
 T. Henderson, D. Ranasinghe, V. G. Zakrzewski, J. Gao, N. Rega, 
 G. Zheng, W. Liang, M. Hada, M. Ehara, K. Toyota, R. Fukuda, 
 J. Hasegawa, M. Ishida, T. Nakajima, Y. Honda, O. Kitao, H. Nakai, 
 T. Vreven, K. Throssell, J. A. Montgomery, Jr., J. E. Peralta, 
 F. Ogliaro, M. J. Bearpark, J. J. Heyd, E. N. Brothers, K. N. Kudin, 
 V. N. Staroverov, T. A. Keith, R. Kobayashi, J. Normand, 
 K. Raghavachari, A. P. Rendell, J. C. Burant, S. S. Iyengar, 
 J. Tomasi, M. Cossi, J. M. Millam, M. Klene, C. Adamo, R. Cammi, 
 J. W. Ochterski, R. L. Martin, K. Morokuma, O. Farkas, 
 J. B. Foresman, and D. J. Fox, Gaussian, Inc., Wallingford CT, 2016.
 
 ******************************************
 Gaussian 16:  EM64L-G16RevA.03 25-Dec-2016
                 6-Mar-2025 
 ******************************************
 %nproc=8
 Will use up to    8 processors via shared memory.
 %mem=4000MB
 --------------------------------------------------------------------
 #opt=(noeigen,calcfc,ts,recalc=5,maxcyc=200) freq B3LYP/SVP em=GD3BJ
 --------------------------------------------------------------------
 1/5=1,6=200,10=4,11=1,18=20,26=3,38=1,71=5/1,3;
 2/9=110,12=2,17=6,18=5,40=1/2;
 3/5=18,7=101,11=2,25=1,30=1,71=2,74=-5,124=41,140=1/1,2,3;
 4//1;
 5/5=2,38=5/2;
 8/6=4,10=90,11=11/1;
 11/6=1,8=1,9=11,15=111,16=1/1,2,10;
 10/6=1,13=1/2;
 6/7=2,8=2,9=2,10=2,28=1/1;
 7/10=1,18=20,25=1/1,2,3,16;
 1/5=1,6=200,10=4,11=1,18=20,26=3,71=5/3(2);
 2/9=110/2;
 99//99;
 2/9=110/2;
 3/5=18,7=101,11=2,25=1,30=1,71=1,74=-5,124=41/1,2,3;
 4/5=5,16=3,69=1/1;
 5/5=2,38=5/2;
 7//1,2,3,16;
 1/5=1,6=200,11=1,18=20,26=3,71=5/3(-5);
 2/9=110/2;
 6/7=2,8=2,9=2,10=2,19=2,28=1/1;
 99/9=1/99;
 -----------
 ts-1426.gjf
 -----------
 Symbolic Z-matrix:
 Charge =  0 Multiplicity = 1
 O                    -1.62317  -4.2342   -6.64177 
 Cl                   -0.3209   -3.76039  -5.57668 
 H                    -1.48171  -5.18104  -6.76435 
 

 GradGradGradGradGradGradGradGradGradGradGradGradGradGradGradGradGradGrad
 Berny optimization.
 Initialization pass.
                           ----------------------------
                           !    Initial Parameters    !
                           ! (Angstroms and Degrees)  !
 --------------------------                            --------------------------
 ! Name  Definition              Value          Derivative Info.                !
 --------------------------------------------------------------------------------
 ! R1    R(1,2)                  1.7478         calculate D2E/DX2 analytically  !
 ! R2    R(1,3)                  0.9652         calculate D2E/DX2 analytically  !
 ! A1    A(2,1,3)              103.5401         calculate D2E/DX2 analytically  !
 --------------------------------------------------------------------------------
 Trust Radius=3.00D-01 FncErr=1.00D-07 GrdErr=1.00D-06 EigMax=2.50D+02 EigMin=1.00D-04
 Number of steps in this run=    100 maximum allowed number of steps=    100.
 Search for a saddle point of order  1.
 GradGradGradGradGradGradGradGradGradGradGradGradGradGradGradGradGradGrad

                          Input orientation:                          
 ---------------------------------------------------------------------
 Center     Atomic      Atomic             Coordinates (Angstroms)
 Number     Number       Type             X           Y           Z
 ---------------------------------------------------------------------
      1          8           0       -1.623171   -4.234197   -6.641767
      2         17           0       -0.320897   -3.760390   -5.576679
      3          1           0       -1.481707   -5.181036   -6.764348
 ---------------------------------------------------------------------
                    Distance matrix (angstroms):
                    1          2          3
     1  O    0.000000
     2  Cl   1.747806   0.000000
     3  H    0.965164   2.185468   0.000000
 Stoichiometry    ClHO
 Framework group  CS[SG(ClHO)]
 Deg. of freedom     3
 Full point group                 CS      NOp   2
 Largest Abelian subgroup         CS      NOp   2
 Largest concise Abelian subgroup C1      NOp   1
                         Standard orientation:                         
 ---------------------------------------------------------------------
 Center     Atomic      Atomic             Coordinates (Angstroms)
 Number     Number       Type             X           Y           Z
 ---------------------------------------------------------------------
      1          8           0        0.036090    1.134105   -0.000000
      2         17           0        0.036090   -0.613701    0.000000
      3          1           0       -0.902249    1.360076   -0.000000
 ---------------------------------------------------------------------
 Rotational constants (GHZ):         616.4351880          14.2023106          13.8824666
 Standard basis: SVP (5D, 7F)
 There are    29 symmetry adapted cartesian basis functions of A'  symmetry.
 There are    10 symmetry adapted cartesian basis functions of A"  symmetry.
 There are    27 symmetry adapted basis functions of A'  symmetry.
 There are    10 symmetry adapted basis functions of A"  symmetry.
    37 basis functions,    69 primitive gaussians,    39 cartesian basis functions
    13 alpha electrons       13 beta electrons
       nuclear repulsion energy        49.6787623635 Hartrees.
 NAtoms=    3 NActive=    3 NUniq=    3 SFac= 1.00D+00 NAtFMM=   60 NAOKFM=F Big=F
 Integral buffers will be    131072 words long.
 Raffenetti 2 integral format.
 Two-electron integral symmetry is turned on.
 Nuclear repulsion after empirical dispersion term =       49.6771505858 Hartrees.
 One-electron integrals computed using PRISM.
 NBasis=    37 RedAO= T EigKep=  3.67D-02  NBF=    27    10
 NBsUse=    37 1.00D-06 EigRej= -1.00D+00 NBFU=    27    10
 ExpMin= 1.22D-01 ExpMax= 1.04D+04 ExpMxC= 1.57D+03 IAcc=3 IRadAn=         5 AccDes= 0.00D+00
 Harris functional with IExCor=  402 and IRadAn=       5 diagonalized for initial guess.
 HarFok:  IExCor=  402 AccDes= 0.00D+00 IRadAn=         5 IDoV= 1 UseB2=F ITyADJ=14
 ICtDFT=  3500011 ScaDFX=  1.000000  1.000000  1.000000  1.000000
 FoFCou: FMM=F IPFlag=           0 FMFlag=      100000 FMFlg1=           0
         NFxFlg=           0 DoJE=T BraDBF=F KetDBF=T FulRan=T
         wScrn=  0.000000 ICntrl=       500 IOpCl=  0 I1Cent=   200000004 NGrid=           0
         NMat0=    1 NMatS0=      1 NMatT0=    0 NMatD0=    1 NMtDS0=    0 NMtDT0=    0
 Petite list used in FoFCou.
 Initial guess orbital symmetries:
       Occupied  (A') (A') (A') (A') (A') (A") (A') (A') (A') (A')
                 (A") (A') (A")
       Virtual   (A') (A') (A') (A') (A') (A") (A') (A') (A") (A')
                 (A") (A') (A") (A') (A') (A') (A") (A') (A') (A")
                 (A') (A") (A') (A')
 The electronic state of the initial guess is 1-A'.
 Keep R1 ints in memory in symmetry-blocked form, NReq=7153137.
 Requested convergence on RMS density matrix=1.00D-08 within 128 cycles.
 Requested convergence on MAX density matrix=1.00D-06.
 Requested convergence on             energy=1.00D-06.
 No special actions if energy rises.
 Integral accuracy reduced to 1.0D-05 until final iterations.
 Initial convergence to 1.0D-05 achieved.  Increase integral accuracy.
 SCF Done:  E(RB3LYP) =  -535.759703921     A.U. after   12 cycles
            NFock= 12  Conv=0.48D-08     -V/T= 2.0026
 DoSCS=F DFT=T ScalE2(SS,OS)=  1.000000  1.000000
 Range of M.O.s used for correlation:     1    37
 NBasis=    37 NAE=    13 NBE=    13 NFC=     0 NFV=     0
 NROrb=     37 NOA=    13 NOB=    13 NVA=    24 NVB=    24
 Symmetrizing basis deriv contribution to polar:
 IMax=3 JMax=2 DiffMx= 0.00D+00
 G2DrvN: will do     4 centers at a time, making    1 passes.
 Calling FoFCou, ICntrl=  3107 FMM=F I1Cent=   0 AccDes= 0.00D+00.
 End of G2Drv F.D. properties file   721 does not exist.
 End of G2Drv F.D. properties file   722 does not exist.
 End of G2Drv F.D. properties file   788 does not exist.
          IDoAtm=111
          Differentiating once with respect to nuclear coordinates.
 Keep R1 ints in memory in symmetry-blocked form, NReq=7127942.
          There are    12 degrees of freedom in the 1st order CPHF.  IDoFFX=6 NUNeed=     0.
      6 vectors produced by pass  0 Test12= 2.60D-15 8.33D-09 XBig12= 7.66D-02 1.90D-01.
 AX will form     6 AO Fock derivatives at one time.
      6 vectors produced by pass  1 Test12= 2.60D-15 8.33D-09 XBig12= 2.30D-02 7.65D-02.
      6 vectors produced by pass  2 Test12= 2.60D-15 8.33D-09 XBig12= 7.35D-04 7.10D-03.
      6 vectors produced by pass  3 Test12= 2.60D-15 8.33D-09 XBig12= 1.94D-05 1.31D-03.
      6 vectors produced by pass  4 Test12= 2.60D-15 8.33D-09 XBig12= 1.48D-07 1.17D-04.
      6 vectors produced by pass  5 Test12= 2.60D-15 8.33D-09 XBig12= 7.52D-10 8.26D-06.
      3 vectors produced by pass  6 Test12= 2.60D-15 8.33D-09 XBig12= 8.15D-13 3.47D-07.
 InvSVY:  IOpt=1 It=  1 EMax= 2.22D-16
 Solved reduced A of dimension    39 with     6 vectors.
 End of Minotr F.D. properties file   721 does not exist.
 End of Minotr F.D. properties file   722 does not exist.
 End of Minotr F.D. properties file   788 does not exist.

 **********************************************************************

            Population analysis using the SCF density.

 **********************************************************************

 Orbital symmetries:
       Occupied  (A') (A') (A') (A') (A') (A") (A') (A') (A') (A')
                 (A") (A') (A")
       Virtual   (A') (A') (A') (A') (A') (A") (A') (A') (A") (A')
                 (A") (A') (A") (A') (A') (A') (A") (A') (A') (A")
                 (A') (A') (A") (A')
 The electronic state is 1-A'.
 Alpha  occ. eigenvalues -- -101.54110 -19.19694  -9.49275  -7.26611  -7.24986
 Alpha  occ. eigenvalues --   -7.24951  -1.03960  -0.79362  -0.52003  -0.42865
 Alpha  occ. eigenvalues --   -0.39441  -0.31498  -0.28156
 Alpha virt. eigenvalues --   -0.07978   0.06213   0.45597   0.55381   0.69181
 Alpha virt. eigenvalues --    0.69679   0.71245   0.76087   0.76217   0.84025
 Alpha virt. eigenvalues --    0.84591   0.94651   0.99884   1.03604   1.11091
 Alpha virt. eigenvalues --    1.31431   1.41708   1.56444   2.17734   2.61587
 Alpha virt. eigenvalues --    2.84702   2.92950   2.93069   3.64967
          Condensed to atoms (all electrons):
               1          2          3
     1  O    7.868392   0.123666   0.306195
     2  Cl   0.123666  16.807599  -0.021350
     3  H    0.306195  -0.021350   0.506985
 Mulliken charges:
               1
     1  O   -0.298254
     2  Cl   0.090084
     3  H    0.208169
 Sum of Mulliken charges =   0.00000
 Mulliken charges with hydrogens summed into heavy atoms:
               1
     1  O   -0.090084
     2  Cl   0.090084
 APT charges:
               1
     1  O   -0.546838
     2  Cl   0.111156
     3  H    0.435682
 Sum of APT charges =   0.00000
 APT charges with hydrogens summed into heavy atoms:
               1
     1  O   -0.111156
     2  Cl   0.111156
 Electronic spatial extent (au):  <R**2>=            107.4217
 Charge=              0.0000 electrons
 Dipole moment (field-independent basis, Debye):
    X=             -1.6603    Y=              0.0731    Z=              0.0000  Tot=              1.6619
 Quadrupole moment (field-independent basis, Debye-Ang):
   XX=            -16.5908   YY=            -16.1655   ZZ=            -18.6019
   XY=             -2.6060   XZ=             -0.0000   YZ=              0.0000
 Traceless Quadrupole moment (field-independent basis, Debye-Ang):
   XX=              0.5286   YY=              0.9539   ZZ=             -1.4825
   XY=             -2.6060   XZ=             -0.0000   YZ=              0.0000
 Octapole moment (field-independent basis, Debye-Ang**2):
  XXX=             -2.1152  YYY=              1.0034  ZZZ=              0.0000  XYY=             -3.6866
  XXY=              3.2367  XXZ=              0.0000  XZZ=             -0.2478  YZZ=              0.6356
  YYZ=              0.0000  XYZ=              0.0000
 Hexadecapole moment (field-independent basis, Debye-Ang**3):
 XXXX=            -16.8350 YYYY=            -78.9444 ZZZZ=            -16.6208 XXXY=             -0.4227
 XXXZ=              0.0000 YYYX=             -3.5603 YYYZ=              0.0000 ZZZX=              0.0000
 ZZZY=             -0.0000 XXYY=            -15.0607 XXZZ=             -5.8495 YYZZ=            -18.2676
 XXYZ=             -0.0000 YYXZ=              0.0000 ZZXY=              0.5095
 N-N= 4.967715058583D+01 E-N=-1.372343229634D+03  KE= 5.343555233940D+02
 Symmetry A'   KE= 4.836034056144D+02
 Symmetry A"   KE= 5.075211777961D+01
  Exact polarizability:   0.000   0.000   0.000   0.000   0.000   0.000
 Approx polarizability:  14.260  -1.371  37.518  -0.000  -0.000  10.142
 Calling FoFJK, ICntrl=    100147 FMM=F ISym2X=1 I1Cent= 0 IOpClX= 0 NMat=1 NMatS=1 NMatT=0.
 ***** Axes restored to original set *****
 -------------------------------------------------------------------
 Center     Atomic                   Forces (Hartrees/Bohr)
 Number     Number              X              Y              Z
 -------------------------------------------------------------------
      1        8           0.004620118    0.012330675    0.006320566
      2       17          -0.008498581   -0.005128710   -0.007436836
      3        1           0.003878462   -0.007201965    0.001116270
 -------------------------------------------------------------------
 Cartesian Forces:  Max     0.012330675 RMS     0.006954882
 FormGI is forming the generalized inverse of G from B-inverse, IUseBI=4.

 GradGradGradGradGradGradGradGradGradGradGradGradGradGradGradGradGradGrad
 Berny optimization.
 Internal  Forces:  Max     0.012254289 RMS     0.009060821
 Search for a saddle point.
 Step number   1 out of a maximum of  100
 All quantities printed in internal units (Hartrees-Bohrs-Radians)
 Swapping is turned off.
 Second derivative matrix not updated -- analytic derivatives used.
 The second derivative matrix:
                          R1        R2        A1
           R1           0.20116
           R2          -0.01040   0.53319
           A1           0.04829  -0.00275   0.18067
 ITU=  0
     Eigenvalues ---    0.14150   0.23995   0.53356
 Eigenvectors required to have negative eigenvalues:
                          A1        R1        R2
   1                   -0.77624   0.63033   0.01127
 RFO step:  Lambda0=1.415561422D-01 Lambda=-8.46943948D-04.
 Linear search not attempted -- option 19 set.
 Iteration  1 RMS(Cart)=  0.05634046 RMS(Int)=  0.00176825
 Iteration  2 RMS(Cart)=  0.00156748 RMS(Int)=  0.00000064
 Iteration  3 RMS(Cart)=  0.00000071 RMS(Int)=  0.00000000
 ClnCor:  largest displacement from symmetrization is 8.88D-16 for atom     1.
 Variable       Old X    -DE/DX   Delta X   Delta X   Delta X     New X
                                 (Linear)    (Quad)   (Total)
    R1        3.30287  -0.01225   0.00000  -0.00723  -0.00723   3.29564
    R2        1.82390   0.00749   0.00000   0.01371   0.01371   1.83761
    A1        1.80712  -0.00632   0.00000  -0.07907  -0.07907   1.72805
         Item               Value     Threshold  Converged?
 Maximum Force            0.012254     0.000450     NO 
 RMS     Force            0.009061     0.000300     NO 
 Maximum Displacement     0.050971     0.001800     NO 
 RMS     Displacement     0.057125     0.001200     NO 
 Predicted change in Energy=-3.963083D-05
 GradGradGradGradGradGradGradGradGradGradGradGradGradGradGradGradGradGrad

                          Input orientation:                          
 ---------------------------------------------------------------------
 Center     Atomic      Atomic             Coordinates (Angstroms)
 Number     Number       Type             X           Y           Z
 ---------------------------------------------------------------------
      1          8           0       -1.641432   -4.220628   -6.651877
      2         17           0       -0.329610   -3.784319   -5.588759
      3          1           0       -1.454734   -5.170677   -6.742157
 ---------------------------------------------------------------------
                    Distance matrix (angstroms):
                    1          2          3
     1  O    0.000000
     2  Cl   1.743980   0.000000
     3  H    0.972419   2.125611   0.000000
 Stoichiometry    ClHO
 Framework group  CS[SG(ClHO)]
 Deg. of freedom     3
 Full point group                 CS      NOp   2
 Largest Abelian subgroup         CS      NOp   2
 Largest concise Abelian subgroup C1      NOp   1
                         Standard orientation:                         
 ---------------------------------------------------------------------
 Center     Atomic      Atomic             Coordinates (Angstroms)
 Number     Number       Type             X           Y           Z
 ---------------------------------------------------------------------
      1          8           0        0.036939    1.134437   -0.000000
      2         17           0        0.036939   -0.609542    0.000000
      3          1           0       -0.923481    1.286721   -0.000000
 ---------------------------------------------------------------------
 Rotational constants (GHZ):         585.0473746          14.3468050          14.0034069
 Standard basis: SVP (5D, 7F)
 There are    29 symmetry adapted cartesian basis functions of A'  symmetry.
 There are    10 symmetry adapted cartesian basis functions of A"  symmetry.
 There are    27 symmetry adapted basis functions of A'  symmetry.
 There are    10 symmetry adapted basis functions of A"  symmetry.
    37 basis functions,    69 primitive gaussians,    39 cartesian basis functions
    13 alpha electrons       13 beta electrons
       nuclear repulsion energy        49.8522897947 Hartrees.
 NAtoms=    3 NActive=    3 NUniq=    3 SFac= 1.00D+00 NAtFMM=   60 NAOKFM=F Big=F
 Integral buffers will be    131072 words long.
 Raffenetti 2 integral format.
 Two-electron integral symmetry is turned on.
 Nuclear repulsion after empirical dispersion term =       49.8506738741 Hartrees.
 One-electron integrals computed using PRISM.
 NBasis=    37 RedAO= T EigKep=  3.61D-02  NBF=    27    10
 NBsUse=    37 1.00D-06 EigRej= -1.00D+00 NBFU=    27    10
 Initial guess from the checkpoint file:  "/tmp/Gau-6506.chk"
 B after Tr=     0.000000    0.000000    0.000000
         Rot=    0.999997    0.000000   -0.000000   -0.002565 Ang=  -0.29 deg.
 Initial guess orbital symmetries:
       Occupied  (A') (A') (A') (A') (A') (A") (A') (A') (A') (A')
                 (A") (A') (A")
       Virtual   (A') (A') (A') (A') (A') (A") (A') (A') (A") (A')
                 (A") (A') (A") (A') (A') (A') (A") (A') (A') (A")
                 (A') (A') (A") (A')
 ExpMin= 1.22D-01 ExpMax= 1.04D+04 ExpMxC= 1.57D+03 IAcc=2 IRadAn=         4 AccDes= 0.00D+00
 Harris functional with IExCor=  402 and IRadAn=       4 diagonalized for initial guess.
 HarFok:  IExCor=  402 AccDes= 0.00D+00 IRadAn=         4 IDoV= 1 UseB2=F ITyADJ=14
 ICtDFT=  3500011 ScaDFX=  1.000000  1.000000  1.000000  1.000000
 FoFCou: FMM=F IPFlag=           0 FMFlag=      100000 FMFlg1=           0
         NFxFlg=           0 DoJE=T BraDBF=F KetDBF=T FulRan=T
         wScrn=  0.000000 ICntrl=       500 IOpCl=  0 I1Cent=   200000004 NGrid=           0
         NMat0=    1 NMatS0=      1 NMatT0=    0 NMatD0=    1 NMtDS0=    0 NMtDT0=    0
 Petite list used in FoFCou.
 Keep R1 ints in memory in symmetry-blocked form, NReq=7153137.
 Requested convergence on RMS density matrix=1.00D-08 within 128 cycles.
 Requested convergence on MAX density matrix=1.00D-06.
 Requested convergence on             energy=1.00D-06.
 No special actions if energy rises.
 Integral accuracy reduced to 1.0D-05 until final iterations.
 Initial convergence to 1.0D-05 achieved.  Increase integral accuracy.
 SCF Done:  E(RB3LYP) =  -535.759731434     A.U. after   11 cycles
            NFock= 11  Conv=0.84D-08     -V/T= 2.0026
 Calling FoFJK, ICntrl=      2127 FMM=F ISym2X=1 I1Cent= 0 IOpClX= 0 NMat=1 NMatS=1 NMatT=0.
 ***** Axes restored to original set *****
 -------------------------------------------------------------------
 Center     Atomic                   Forces (Hartrees/Bohr)
 Number     Number              X              Y              Z
 -------------------------------------------------------------------
      1        8           0.009448628   -0.000368337    0.006819291
      2       17          -0.005671350    0.000929435   -0.003924072
      3        1          -0.003777278   -0.000561098   -0.002895219
 -------------------------------------------------------------------
 Cartesian Forces:  Max     0.009448628 RMS     0.004799379

 GradGradGradGradGradGradGradGradGradGradGradGradGradGradGradGradGradGrad
 Berny optimization.
 FormGI is forming the generalized inverse of G from B-inverse, IUseBI=4.
 Internal  Forces:  Max     0.008804734 RMS     0.006293352
 Search for a saddle point.
 Step number   2 out of a maximum of  100
 All quantities printed in internal units (Hartrees-Bohrs-Radians)
 Swapping is turned off.
 Update second derivatives using D2CorX and points    1    2
 The second derivative matrix:
                          R1        R2        A1
           R1           0.20389
           R2          -0.00957   0.53321
           A1           0.05341  -0.00027   0.18641
 ITU=  0  0
     Eigenvalues ---    0.14093   0.24908   0.53349
 Eigenvectors required to have negative eigenvalues:
                          A1        R1        R2
   1                   -0.76127   0.64826   0.01530
 RFO step:  Lambda0=1.417673607D-01 Lambda=-2.82289482D-06.
 Linear search not attempted -- option 19 set.
 Iteration  1 RMS(Cart)=  0.00207903 RMS(Int)=  0.00000014
 Iteration  2 RMS(Cart)=  0.00000010 RMS(Int)=  0.00000000
 ClnCor:  largest displacement from symmetrization is 1.99D-15 for atom     3.
 Variable       Old X    -DE/DX   Delta X   Delta X   Delta X     New X
                                 (Linear)    (Quad)   (Total)
    R1        3.29564  -0.00643   0.00000   0.00466   0.00466   3.30030
    R2        1.83761   0.00009   0.00000   0.00058   0.00058   1.83819
    A1        1.72805   0.00880   0.00000  -0.00040  -0.00040   1.72765
         Item               Value     Threshold  Converged?
 Maximum Force            0.008805     0.000450     NO 
 RMS     Force            0.006293     0.000300     NO 
 Maximum Displacement     0.001972     0.001800     NO 
 RMS     Displacement     0.002079     0.001200     NO 
 Predicted change in Energy= 3.559008D-05
 GradGradGradGradGradGradGradGradGradGradGradGradGradGradGradGradGradGrad

                          Input orientation:                          
 ---------------------------------------------------------------------
 Center     Atomic      Atomic             Coordinates (Angstroms)
 Number     Number       Type             X           Y           Z
 ---------------------------------------------------------------------
      1          8           0       -1.642181   -4.220814   -6.652469
      2         17           0       -0.328566   -3.783696   -5.587848
      3          1           0       -1.455029   -5.171113   -6.742477
 ---------------------------------------------------------------------
                    Distance matrix (angstroms):
                    1          2          3
     1  O    0.000000
     2  Cl   1.746446   0.000000
     3  H    0.972726   2.127678   0.000000
 Stoichiometry    ClHO
 Framework group  CS[SG(ClHO)]
 Deg. of freedom     3
 Full point group                 CS      NOp   2
 Largest Abelian subgroup         CS      NOp   2
 Largest concise Abelian subgroup C1      NOp   1
                         Standard orientation:                         
 ---------------------------------------------------------------------
 Center     Atomic      Atomic             Coordinates (Angstroms)
 Number     Number       Type             X           Y           Z
 ---------------------------------------------------------------------
      1          8           0        0.036953    1.136063   -0.000000
      2         17           0        0.036953   -0.610383    0.000000
      3          1           0       -0.923831    1.288013   -0.000000
 ---------------------------------------------------------------------
 Rotational constants (GHZ):         584.5775569          14.3069622          13.9651782
 Standard basis: SVP (5D, 7F)
 There are    29 symmetry adapted cartesian basis functions of A'  symmetry.
 There are    10 symmetry adapted cartesian basis functions of A"  symmetry.
 There are    27 symmetry adapted basis functions of A'  symmetry.
 There are    10 symmetry adapted basis functions of A"  symmetry.
    37 basis functions,    69 primitive gaussians,    39 cartesian basis functions
    13 alpha electrons       13 beta electrons
       nuclear repulsion energy        49.7885261854 Hartrees.
 NAtoms=    3 NActive=    3 NUniq=    3 SFac= 1.00D+00 NAtFMM=   60 NAOKFM=F Big=F
 Integral buffers will be    131072 words long.
 Raffenetti 2 integral format.
 Two-electron integral symmetry is turned on.
 Nuclear repulsion after empirical dispersion term =       49.7869104426 Hartrees.
 One-electron integrals computed using PRISM.
 NBasis=    37 RedAO= T EigKep=  3.63D-02  NBF=    27    10
 NBsUse=    37 1.00D-06 EigRej= -1.00D+00 NBFU=    27    10
 Initial guess from the checkpoint file:  "/tmp/Gau-6506.chk"
 B after Tr=     0.000000   -0.000000   -0.000000
         Rot=    1.000000    0.000000   -0.000000    0.000020 Ang=   0.00 deg.
 Initial guess orbital symmetries:
       Occupied  (A') (A') (A') (A') (A') (A") (A') (A') (A') (A')
                 (A") (A') (A")
       Virtual   (A') (A') (A') (A') (A') (A") (A') (A') (A") (A')
                 (A") (A') (A") (A') (A') (A') (A") (A') (A') (A")
                 (A') (A') (A") (A')
 Keep R1 ints in memory in symmetry-blocked form, NReq=7153137.
 Requested convergence on RMS density matrix=1.00D-08 within 128 cycles.
 Requested convergence on MAX density matrix=1.00D-06.
 Requested convergence on             energy=1.00D-06.
 No special actions if energy rises.
 SCF Done:  E(RB3LYP) =  -535.759695765     A.U. after    7 cycles
            NFock=  7  Conv=0.91D-08     -V/T= 2.0026
 Calling FoFJK, ICntrl=      2127 FMM=F ISym2X=1 I1Cent= 0 IOpClX= 0 NMat=1 NMatS=1 NMatT=0.
 ***** Axes restored to original set *****
 -------------------------------------------------------------------
 Center     Atomic                   Forces (Hartrees/Bohr)
 Number     Number              X              Y              Z
 -------------------------------------------------------------------
      1        8           0.010114058   -0.000320211    0.007317226
      2       17          -0.006373176    0.000629846   -0.004508633
      3        1          -0.003740882   -0.000309636   -0.002808593
 -------------------------------------------------------------------
 Cartesian Forces:  Max     0.010114058 RMS     0.005155995

 GradGradGradGradGradGradGradGradGradGradGradGradGradGradGradGradGradGrad
 Berny optimization.
 FormGI is forming the generalized inverse of G from B-inverse, IUseBI=4.
 Internal  Forces:  Max     0.008612920 RMS     0.006550747
 Search for a saddle point.
 Step number   3 out of a maximum of  100
 All quantities printed in internal units (Hartrees-Bohrs-Radians)
 Swapping is turned off.
 Update second derivatives using D2CorX and points    1    2    3
 The second derivative matrix:
                          R1        R2        A1
           R1           0.21219
           R2          -0.01279   0.53215
           A1           0.05689   0.00078   0.18552
 ITU=  0  0  0
     Eigenvalues ---    0.14024   0.25696   0.53267
 Eigenvectors required to have negative eigenvalues:
                          A1        R1        R2
   1                   -0.78237   0.62243   0.02187
 RFO step:  Lambda0=1.411474890D-01 Lambda=-6.84805299D-07.
 Linear search not attempted -- option 19 set.
 Iteration  1 RMS(Cart)=  0.00169370 RMS(Int)=  0.00000151
 Iteration  2 RMS(Cart)=  0.00000121 RMS(Int)=  0.00000000
 Iteration  3 RMS(Cart)=  0.00000000 RMS(Int)=  0.00000000
 ClnCor:  largest displacement from symmetrization is 1.78D-15 for atom     3.
 Variable       Old X    -DE/DX   Delta X   Delta X   Delta X     New X
                                 (Linear)    (Quad)   (Total)
    R1        3.30030  -0.00738   0.00000  -0.00026  -0.00026   3.30005
    R2        1.83819  -0.00016   0.00000   0.00018   0.00018   1.83836
    A1        1.72765   0.00861   0.00000  -0.00227  -0.00227   1.72538
         Item               Value     Threshold  Converged?
 Maximum Force            0.008613     0.000450     NO 
 RMS     Force            0.006551     0.000300     NO 
 Maximum Displacement     0.001489     0.001800     YES
 RMS     Displacement     0.001694     0.001200     NO 
 Predicted change in Energy= 1.820617D-05
 GradGradGradGradGradGradGradGradGradGradGradGradGradGradGradGradGradGrad

                          Input orientation:                          
 ---------------------------------------------------------------------
 Center     Atomic      Atomic             Coordinates (Angstroms)
 Number     Number       Type             X           Y           Z
 ---------------------------------------------------------------------
      1          8           0       -1.642690   -4.220490   -6.652764
      2         17           0       -0.328845   -3.784415   -5.588223
      3          1           0       -1.454241   -5.170719   -6.741807
 ---------------------------------------------------------------------
                    Distance matrix (angstroms):
                    1          2          3
     1  O    0.000000
     2  Cl   1.746310   0.000000
     3  H    0.972819   2.125821   0.000000
 Stoichiometry    ClHO
 Framework group  CS[SG(ClHO)]
 Deg. of freedom     3
 Full point group                 CS      NOp   2
 Largest Abelian subgroup         CS      NOp   2
 Largest concise Abelian subgroup C1      NOp   1
                         Standard orientation:                         
 ---------------------------------------------------------------------
 Center     Atomic      Atomic             Coordinates (Angstroms)
 Number     Number       Type             X           Y           Z
 ---------------------------------------------------------------------
      1          8           0        0.036970    1.136057   -0.000000
      2         17           0        0.036970   -0.610253    0.000000
      3          1           0       -0.924249    1.285841   -0.000000
 ---------------------------------------------------------------------
 Rotational constants (GHZ):         583.9524754          14.3115515          13.9691934
 Standard basis: SVP (5D, 7F)
 There are    29 symmetry adapted cartesian basis functions of A'  symmetry.
 There are    10 symmetry adapted cartesian basis functions of A"  symmetry.
 There are    27 symmetry adapted basis functions of A'  symmetry.
 There are    10 symmetry adapted basis functions of A"  symmetry.
    37 basis functions,    69 primitive gaussians,    39 cartesian basis functions
    13 alpha electrons       13 beta electrons
       nuclear repulsion energy        49.7950047178 Hartrees.
 NAtoms=    3 NActive=    3 NUniq=    3 SFac= 1.00D+00 NAtFMM=   60 NAOKFM=F Big=F
 Integral buffers will be    131072 words long.
 Raffenetti 2 integral format.
 Two-electron integral symmetry is turned on.
 Nuclear repulsion after empirical dispersion term =       49.7933888599 Hartrees.
 One-electron integrals computed using PRISM.
 NBasis=    37 RedAO= T EigKep=  3.62D-02  NBF=    27    10
 NBsUse=    37 1.00D-06 EigRej= -1.00D+00 NBFU=    27    10
 Initial guess from the checkpoint file:  "/tmp/Gau-6506.chk"
 B after Tr=    -0.000000    0.000000   -0.000000
         Rot=    1.000000    0.000000   -0.000000   -0.000069 Ang=  -0.01 deg.
 Initial guess orbital symmetries:
       Occupied  (A') (A') (A') (A') (A') (A") (A') (A') (A') (A')
                 (A") (A') (A")
       Virtual   (A') (A') (A') (A') (A') (A") (A') (A') (A") (A')
                 (A") (A') (A") (A') (A') (A') (A") (A') (A') (A")
                 (A') (A') (A") (A')
 Keep R1 ints in memory in symmetry-blocked form, NReq=7153137.
 Requested convergence on RMS density matrix=1.00D-08 within 128 cycles.
 Requested convergence on MAX density matrix=1.00D-06.
 Requested convergence on             energy=1.00D-06.
 No special actions if energy rises.
 SCF Done:  E(RB3LYP) =  -535.759677544     A.U. after    7 cycles
            NFock=  7  Conv=0.73D-08     -V/T= 2.0026
 Calling FoFJK, ICntrl=      2127 FMM=F ISym2X=1 I1Cent= 0 IOpClX= 0 NMat=1 NMatS=1 NMatT=0.
 ***** Axes restored to original set *****
 -------------------------------------------------------------------
 Center     Atomic                   Forces (Hartrees/Bohr)
 Number     Number              X              Y              Z
 -------------------------------------------------------------------
      1        8           0.010226705   -0.000562987    0.007341627
      2       17          -0.006275628    0.000810340   -0.004394241
      3        1          -0.003951077   -0.000247353   -0.002947385
 -------------------------------------------------------------------
 Cartesian Forces:  Max     0.010226705 RMS     0.005190919

 GradGradGradGradGradGradGradGradGradGradGradGradGradGradGradGradGradGrad
 Berny optimization.
 FormGI is forming the generalized inverse of G from B-inverse, IUseBI=4.
 Internal  Forces:  Max     0.009061395 RMS     0.006682864
 Search for a saddle point.
 Step number   4 out of a maximum of  100
 All quantities printed in internal units (Hartrees-Bohrs-Radians)
 Swapping is turned off.
 Update second derivatives using D2CorX and points    1    2    3    4
 The second derivative matrix:
                          R1        R2        A1
           R1           0.21092
           R2          -0.01299   0.53222
           A1           0.05738   0.00029   0.19116
 ITU=  0  0  0  0
     Eigenvalues ---    0.14263   0.25892   0.53276
 Eigenvectors required to have negative eigenvalues:
                          A1        R1        R2
   1                   -0.76339   0.64557   0.02208
 RFO step:  Lambda0=1.435588744D-01 Lambda=-4.86750975D-07.
 Linear search not attempted -- option 19 set.
 Iteration  1 RMS(Cart)=  0.00084351 RMS(Int)=  0.00000003
 Iteration  2 RMS(Cart)=  0.00000003 RMS(Int)=  0.00000000
 ClnCor:  largest displacement from symmetrization is 9.93D-16 for atom     1.
 Variable       Old X    -DE/DX   Delta X   Delta X   Delta X     New X
                                 (Linear)    (Quad)   (Total)
    R1        3.30005  -0.00720   0.00000   0.00193   0.00193   3.30198
    R2        1.83836  -0.00025   0.00000   0.00006   0.00006   1.83842
    A1        1.72538   0.00906   0.00000  -0.00016  -0.00016   1.72522
         Item               Value     Threshold  Converged?
 Maximum Force            0.009061     0.000450     NO 
 RMS     Force            0.006683     0.000300     NO 
 Maximum Displacement     0.000806     0.001800     YES
 RMS     Displacement     0.000844     0.001200     YES
 Predicted change in Energy= 1.575181D-05
 GradGradGradGradGradGradGradGradGradGradGradGradGradGradGradGradGradGrad

                          Input orientation:                          
 ---------------------------------------------------------------------
 Center     Atomic      Atomic             Coordinates (Angstroms)
 Number     Number       Type             X           Y           Z
 ---------------------------------------------------------------------
      1          8           0       -1.642995   -4.220610   -6.653015
      2         17           0       -0.328418   -3.784166   -5.587852
      3          1           0       -1.454363   -5.170847   -6.741927
 ---------------------------------------------------------------------
                    Distance matrix (angstroms):
                    1          2          3
     1  O    0.000000
     2  Cl   1.747332   0.000000
     3  H    0.972850   2.126623   0.000000
 Stoichiometry    ClHO
 Framework group  CS[SG(ClHO)]
 Deg. of freedom     3
 Full point group                 CS      NOp   2
 Largest Abelian subgroup         CS      NOp   2
 Largest concise Abelian subgroup C1      NOp   1
                         Standard orientation:                         
 ---------------------------------------------------------------------
 Center     Atomic      Atomic             Coordinates (Angstroms)
 Number     Number       Type             X           Y           Z
 ---------------------------------------------------------------------
      1          8           0        0.036972    1.136731    0.000000
      2         17           0        0.036972   -0.610601    0.000000
      3          1           0       -0.924302    1.286365   -0.000000
 ---------------------------------------------------------------------
 Rotational constants (GHZ):         583.8747562          14.2950992          13.9534740
 Standard basis: SVP (5D, 7F)
 There are    29 symmetry adapted cartesian basis functions of A'  symmetry.
 There are    10 symmetry adapted cartesian basis functions of A"  symmetry.
 There are    27 symmetry adapted basis functions of A'  symmetry.
 There are    10 symmetry adapted basis functions of A"  symmetry.
    37 basis functions,    69 primitive gaussians,    39 cartesian basis functions
    13 alpha electrons       13 beta electrons
       nuclear repulsion energy        49.7691675652 Hartrees.
 NAtoms=    3 NActive=    3 NUniq=    3 SFac= 1.00D+00 NAtFMM=   60 NAOKFM=F Big=F
 Integral buffers will be    131072 words long.
 Raffenetti 2 integral format.
 Two-electron integral symmetry is turned on.
 Nuclear repulsion after empirical dispersion term =       49.7675517787 Hartrees.
 One-electron integrals computed using PRISM.
 NBasis=    37 RedAO= T EigKep=  3.63D-02  NBF=    27    10
 NBsUse=    37 1.00D-06 EigRej= -1.00D+00 NBFU=    27    10
 Initial guess from the checkpoint file:  "/tmp/Gau-6506.chk"
 B after Tr=    -0.000000   -0.000000    0.000000
         Rot=    1.000000   -0.000000    0.000000    0.000011 Ang=   0.00 deg.
 Initial guess orbital symmetries:
       Occupied  (A') (A') (A') (A') (A') (A") (A') (A') (A') (A')
                 (A") (A') (A")
       Virtual   (A') (A') (A') (A') (A') (A") (A') (A') (A") (A')
                 (A") (A') (A") (A') (A') (A') (A") (A') (A') (A")
                 (A') (A') (A") (A')
 Keep R1 ints in memory in symmetry-blocked form, NReq=7153137.
 Requested convergence on RMS density matrix=1.00D-08 within 128 cycles.
 Requested convergence on MAX density matrix=1.00D-06.
 Requested convergence on             energy=1.00D-06.
 No special actions if energy rises.
 SCF Done:  E(RB3LYP) =  -535.759661793     A.U. after    7 cycles
            NFock=  7  Conv=0.33D-08     -V/T= 2.0026
 Calling FoFJK, ICntrl=      2127 FMM=F ISym2X=1 I1Cent= 0 IOpClX= 0 NMat=1 NMatS=1 NMatT=0.
 ***** Axes restored to original set *****
 -------------------------------------------------------------------
 Center     Atomic                   Forces (Hartrees/Bohr)
 Number     Number              X              Y              Z
 -------------------------------------------------------------------
      1        8           0.010483825   -0.000452536    0.007555952
      2       17          -0.006565661    0.000686104   -0.004635917
      3        1          -0.003918164   -0.000233568   -0.002920034
 -------------------------------------------------------------------
 Cartesian Forces:  Max     0.010483825 RMS     0.005335534

 GradGradGradGradGradGradGradGradGradGradGradGradGradGradGradGradGradGrad
 Berny optimization.
 FormGI is forming the generalized inverse of G from B-inverse, IUseBI=4.
 Internal  Forces:  Max     0.008980800 RMS     0.006792069
 Search for a saddle point.
 Step number   5 out of a maximum of  100
 All quantities printed in internal units (Hartrees-Bohrs-Radians)
 Swapping is turned off.
 Update second derivatives using D2CorX and points    2    3    4    5
 The second derivative matrix:
                          R1        R2        A1
           R1           0.21037
           R2          -0.01053   0.53264
           A1           0.05771  -0.00096   0.19123
 ITU=  0  0  0  0
     Eigenvalues ---    0.14221   0.25902   0.53300
 Eigenvectors required to have negative eigenvalues:
                          A1        R1        R2
   1                   -0.76193   0.64747   0.01561
 RFO step:  Lambda0=1.431784355D-01 Lambda=-1.52251739D-08.
 Linear search not attempted -- option 19 set.
 Iteration  1 RMS(Cart)=  0.00010296 RMS(Int)=  0.00000001
 Iteration  2 RMS(Cart)=  0.00000001 RMS(Int)=  0.00000000
 ClnCor:  largest displacement from symmetrization is 2.51D-15 for atom     3.
 Variable       Old X    -DE/DX   Delta X   Delta X   Delta X     New X
                                 (Linear)    (Quad)   (Total)
    R1        3.30198  -0.00759   0.00000   0.00020   0.00020   3.30218
    R2        1.83842  -0.00026   0.00000  -0.00015  -0.00015   1.83827
    A1        1.72522   0.00898   0.00000  -0.00007  -0.00007   1.72514
         Item               Value     Threshold  Converged?
 Maximum Force            0.008981     0.000450     NO 
 RMS     Force            0.006792     0.000300     NO 
 Maximum Displacement     0.000080     0.001800     YES
 RMS     Displacement     0.000103     0.001200     YES
 Predicted change in Energy= 2.154846D-06
 GradGradGradGradGradGradGradGradGradGradGradGradGradGradGradGradGradGrad

                          Input orientation:                          
 ---------------------------------------------------------------------
 Center     Atomic      Atomic             Coordinates (Angstroms)
 Number     Number       Type             X           Y           Z
 ---------------------------------------------------------------------
      1          8           0       -1.643036   -4.220652   -6.653056
      2         17           0       -0.328384   -3.784167   -5.587827
      3          1           0       -1.454356   -5.170805   -6.741911
 ---------------------------------------------------------------------
                    Distance matrix (angstroms):
                    1          2          3
     1  O    0.000000
     2  Cl   1.747438   0.000000
     3  H    0.972772   2.126614   0.000000
 Stoichiometry    ClHO
 Framework group  CS[SG(ClHO)]
 Deg. of freedom     3
 Full point group                 CS      NOp   2
 Largest Abelian subgroup         CS      NOp   2
 Largest concise Abelian subgroup C1      NOp   1
                         Standard orientation:                         
 ---------------------------------------------------------------------
 Center     Atomic      Atomic             Coordinates (Angstroms)
 Number     Number       Type             X           Y           Z
 ---------------------------------------------------------------------
      1          8           0        0.036970    1.136804    0.000000
      2         17           0        0.036970   -0.610634   -0.000000
      3          1           0       -0.924238    1.286354    0.000000
 ---------------------------------------------------------------------
 Rotational constants (GHZ):         583.9508881          14.2934713          13.9519665
 Standard basis: SVP (5D, 7F)
 There are    29 symmetry adapted cartesian basis functions of A'  symmetry.
 There are    10 symmetry adapted cartesian basis functions of A"  symmetry.
 There are    27 symmetry adapted basis functions of A'  symmetry.
 There are    10 symmetry adapted basis functions of A"  symmetry.
    37 basis functions,    69 primitive gaussians,    39 cartesian basis functions
    13 alpha electrons       13 beta electrons
       nuclear repulsion energy        49.7670370779 Hartrees.
 NAtoms=    3 NActive=    3 NUniq=    3 SFac= 1.00D+00 NAtFMM=   60 NAOKFM=F Big=F
 Integral buffers will be    131072 words long.
 Raffenetti 2 integral format.
 Two-electron integral symmetry is turned on.
 Nuclear repulsion after empirical dispersion term =       49.7654212939 Hartrees.
 One-electron integrals computed using PRISM.
 NBasis=    37 RedAO= T EigKep=  3.63D-02  NBF=    27    10
 NBsUse=    37 1.00D-06 EigRej= -1.00D+00 NBFU=    27    10
 Initial guess from the checkpoint file:  "/tmp/Gau-6506.chk"
 B after Tr=     0.000000    0.000000   -0.000000
         Rot=    1.000000    0.000000   -0.000000    0.000002 Ang=   0.00 deg.
 Initial guess orbital symmetries:
       Occupied  (A') (A') (A') (A') (A') (A") (A') (A') (A') (A')
                 (A") (A') (A")
       Virtual   (A') (A') (A') (A') (A') (A") (A') (A') (A") (A')
                 (A") (A') (A") (A') (A') (A') (A") (A') (A') (A")
                 (A') (A') (A") (A')
 Keep R1 ints in memory in symmetry-blocked form, NReq=7153137.
 Requested convergence on RMS density matrix=1.00D-08 within 128 cycles.
 Requested convergence on MAX density matrix=1.00D-06.
 Requested convergence on             energy=1.00D-06.
 No special actions if energy rises.
 SCF Done:  E(RB3LYP) =  -535.759659638     A.U. after    6 cycles
            NFock=  6  Conv=0.36D-08     -V/T= 2.0026
 Calling FoFJK, ICntrl=      2127 FMM=F ISym2X=1 I1Cent= 0 IOpClX= 0 NMat=1 NMatS=1 NMatT=0.
 ***** Axes restored to original set *****
 -------------------------------------------------------------------
 Center     Atomic                   Forces (Hartrees/Bohr)
 Number     Number              X              Y              Z
 -------------------------------------------------------------------
      1        8           0.010499848   -0.000367809    0.007587888
      2       17          -0.006595326    0.000676716   -0.004659844
      3        1          -0.003904522   -0.000308908   -0.002928044
 -------------------------------------------------------------------
 Cartesian Forces:  Max     0.010499848 RMS     0.005349379

 GradGradGradGradGradGradGradGradGradGradGradGradGradGradGradGradGradGrad
 Berny optimization.
 FormGI is forming the generalized inverse of G from B-inverse, IUseBI=4.
 Internal  Forces:  Max     0.008983024 RMS     0.006806839
 Search for a saddle point.
 Step number   6 out of a maximum of  100
 All quantities printed in internal units (Hartrees-Bohrs-Radians)
 Swapping is turned off.
 Second derivative matrix not updated -- analytic derivatives used.
 The second derivative matrix:
                          R1        R2        A1
           R1           0.21037
           R2          -0.01053   0.53264
           A1           0.05771  -0.00096   0.19123
 ITU=  0  0  0  0
     Eigenvalues ---    0.14221   0.25902   0.53300
 Eigenvectors required to have negative eigenvalues:
                          A1        R1        R2
   1                   -0.76193   0.64747   0.01561
 RFO step:  Lambda0=1.431826667D-01 Lambda= 0.00000000D+00.
 Linear search not attempted -- option 19 set.
 Iteration  1 RMS(Cart)=  0.00000575 RMS(Int)=  0.00000000
 Iteration  2 RMS(Cart)=  0.00000000 RMS(Int)=  0.00000000
 ClnCor:  largest displacement from symmetrization is 1.78D-15 for atom     3.
 Variable       Old X    -DE/DX   Delta X   Delta X   Delta X     New X
                                 (Linear)    (Quad)   (Total)
    R1        3.30218  -0.00763   0.00000   0.00001   0.00001   3.30218
    R2        1.83827  -0.00019   0.00000  -0.00001  -0.00001   1.83826
    A1        1.72514   0.00898   0.00000  -0.00001  -0.00001   1.72514
         Item               Value     Threshold  Converged?
 Maximum Force            0.008983     0.000450     NO 
 RMS     Force            0.006807     0.000300     NO 
 Maximum Displacement     0.000006     0.001800     YES
 RMS     Displacement     0.000006     0.001200     YES
 Predicted change in Energy= 9.322787D-08
 GradGradGradGradGradGradGradGradGradGradGradGradGradGradGradGradGradGrad

                          Input orientation:                          
 ---------------------------------------------------------------------
 Center     Atomic      Atomic             Coordinates (Angstroms)
 Number     Number       Type             X           Y           Z
 ---------------------------------------------------------------------
      1          8           0       -1.643038   -4.220654   -6.653057
      2         17           0       -0.328384   -3.784168   -5.587827
      3          1           0       -1.454354   -5.170802   -6.741909
 ---------------------------------------------------------------------
                    Distance matrix (angstroms):
                    1          2          3
     1  O    0.000000
     2  Cl   1.747441   0.000000
     3  H    0.972768   2.126609   0.000000
 Stoichiometry    ClHO
 Framework group  CS[SG(ClHO)]
 Deg. of freedom     3
 Full point group                 CS      NOp   2
 Largest Abelian subgroup         CS      NOp   2
 Largest concise Abelian subgroup C1      NOp   1
                         Standard orientation:                         
 ---------------------------------------------------------------------
 Center     Atomic      Atomic             Coordinates (Angstroms)
 Number     Number       Type             X           Y           Z
 ---------------------------------------------------------------------
      1          8           0        0.036969    1.136806    0.000000
      2         17           0        0.036969   -0.610635   -0.000000
      3          1           0       -0.924235    1.286350    0.000000
 ---------------------------------------------------------------------
 Rotational constants (GHZ):         583.9544026          14.2934343          13.9519332
 Standard basis: SVP (5D, 7F)
 There are    29 symmetry adapted cartesian basis functions of A'  symmetry.
 There are    10 symmetry adapted cartesian basis functions of A"  symmetry.
 There are    27 symmetry adapted basis functions of A'  symmetry.
 There are    10 symmetry adapted basis functions of A"  symmetry.
    37 basis functions,    69 primitive gaussians,    39 cartesian basis functions
    13 alpha electrons       13 beta electrons
       nuclear repulsion energy        49.7670006656 Hartrees.
 NAtoms=    3 NActive=    3 NUniq=    3 SFac= 1.00D+00 NAtFMM=   60 NAOKFM=F Big=F
 Integral buffers will be    131072 words long.
 Raffenetti 2 integral format.
 Two-electron integral symmetry is turned on.
 Nuclear repulsion after empirical dispersion term =       49.7653848815 Hartrees.
 One-electron integrals computed using PRISM.
 NBasis=    37 RedAO= T EigKep=  3.63D-02  NBF=    27    10
 NBsUse=    37 1.00D-06 EigRej= -1.00D+00 NBFU=    27    10
 Initial guess from the checkpoint file:  "/tmp/Gau-6506.chk"
 B after Tr=     0.000000    0.000000   -0.000000
         Rot=    1.000000   -0.000000    0.000000   -0.000000 Ang=   0.00 deg.
 Initial guess orbital symmetries:
       Occupied  (A') (A') (A') (A') (A') (A") (A') (A') (A') (A')
                 (A") (A') (A")
       Virtual   (A') (A') (A') (A') (A') (A") (A') (A') (A") (A')
                 (A") (A') (A") (A') (A') (A') (A") (A') (A') (A")
                 (A') (A') (A") (A')
 Keep R1 ints in memory in symmetry-blocked form, NReq=7153137.
 Requested convergence on RMS density matrix=1.00D-08 within 128 cycles.
 Requested convergence on MAX density matrix=1.00D-06.
 Requested convergence on             energy=1.00D-06.
 No special actions if energy rises.
 SCF Done:  E(RB3LYP) =  -535.759659545     A.U. after    4 cycles
            NFock=  4  Conv=0.51D-08     -V/T= 2.0026
 Calling FoFJK, ICntrl=      2127 FMM=F ISym2X=1 I1Cent= 0 IOpClX= 0 NMat=1 NMatS=1 NMatT=0.
 ***** Axes restored to original set *****
 -------------------------------------------------------------------
 Center     Atomic                   Forces (Hartrees/Bohr)
 Number     Number              X              Y              Z
 -------------------------------------------------------------------
      1        8           0.010500148   -0.000363894    0.007589042
      2       17          -0.006596015    0.000676760   -0.004660337
      3        1          -0.003904133   -0.000312866   -0.002928705
 -------------------------------------------------------------------
 Cartesian Forces:  Max     0.010500148 RMS     0.005349774

 GradGradGradGradGradGradGradGradGradGradGradGradGradGradGradGradGradGrad
 Berny optimization.
 FormGI is forming the generalized inverse of G from B-inverse, IUseBI=4.
 Internal  Forces:  Max     0.008983883 RMS     0.006807483
 Search for a saddle point.
 Step number   7 out of a maximum of  100
 All quantities printed in internal units (Hartrees-Bohrs-Radians)
 Swapping is turned off.
 Update second derivatives using D2CorX and points    4    7
 The second derivative matrix:
                          R1        R2        A1
           R1           0.21037
           R2          -0.00850   0.53245
           A1           0.05778  -0.00119   0.19121
 ITU=  0  0  0  0
     Eigenvalues ---    0.14216   0.25917   0.53270
 Eigenvectors required to have negative eigenvalues:
                          A1        R1        R2
   1                   -0.76221   0.64722   0.01177
 RFO step:  Lambda0=1.431361658D-01 Lambda= 0.00000000D+00.
 Linear search not attempted -- option 19 set.
 Iteration  1 RMS(Cart)=  0.00007095 RMS(Int)=  0.00000000
 Iteration  2 RMS(Cart)=  0.00000000 RMS(Int)=  0.00000000
 ClnCor:  largest displacement from symmetrization is 2.66D-15 for atom     3.
 Variable       Old X    -DE/DX   Delta X   Delta X   Delta X     New X
                                 (Linear)    (Quad)   (Total)
    R1        3.30218  -0.00763   0.00000   0.00004   0.00004   3.30223
    R2        1.83826  -0.00018   0.00000  -0.00008  -0.00008   1.83818
    A1        1.72514   0.00898   0.00000  -0.00008  -0.00008   1.72506
         Item               Value     Threshold  Converged?
 Maximum Force            0.008984     0.000450     NO 
 RMS     Force            0.006807     0.000300     NO 
 Maximum Displacement     0.000069     0.001800     YES
 RMS     Displacement     0.000071     0.001200     YES
 Predicted change in Energy= 1.032741D-06
 GradGradGradGradGradGradGradGradGradGradGradGradGradGradGradGradGradGrad

                          Input orientation:                          
 ---------------------------------------------------------------------
 Center     Atomic      Atomic             Coordinates (Angstroms)
 Number     Number       Type             X           Y           Z
 ---------------------------------------------------------------------
      1          8           0       -1.643061   -4.220668   -6.653077
      2         17           0       -0.328385   -3.784191   -5.587833
      3          1           0       -1.454330   -5.170765   -6.741883
 ---------------------------------------------------------------------
                    Distance matrix (angstroms):
                    1          2          3
     1  O    0.000000
     2  Cl   1.747464   0.000000
     3  H    0.972723   2.126540   0.000000
 Stoichiometry    ClHO
 Framework group  CS[SG(ClHO)]
 Deg. of freedom     3
 Full point group                 CS      NOp   2
 Largest Abelian subgroup         CS      NOp   2
 Largest concise Abelian subgroup C1      NOp   1
                         Standard orientation:                         
 ---------------------------------------------------------------------
 Center     Atomic      Atomic             Coordinates (Angstroms)
 Number     Number       Type             X           Y           Z
 ---------------------------------------------------------------------
      1          8           0        0.036968    1.136824   -0.000000
      2         17           0        0.036968   -0.610640    0.000000
      3          1           0       -0.924204    1.286284   -0.000000
 ---------------------------------------------------------------------
 Rotational constants (GHZ):         583.9897123          14.2931584          13.9516906
 Standard basis: SVP (5D, 7F)
 There are    29 symmetry adapted cartesian basis functions of A'  symmetry.
 There are    10 symmetry adapted cartesian basis functions of A"  symmetry.
 There are    27 symmetry adapted basis functions of A'  symmetry.
 There are    10 symmetry adapted basis functions of A"  symmetry.
    37 basis functions,    69 primitive gaussians,    39 cartesian basis functions
    13 alpha electrons       13 beta electrons
       nuclear repulsion energy        49.7668018032 Hartrees.
 NAtoms=    3 NActive=    3 NUniq=    3 SFac= 1.00D+00 NAtFMM=   60 NAOKFM=F Big=F
 Integral buffers will be    131072 words long.
 Raffenetti 2 integral format.
 Two-electron integral symmetry is turned on.
 Nuclear repulsion after empirical dispersion term =       49.7651860160 Hartrees.
 One-electron integrals computed using PRISM.
 NBasis=    37 RedAO= T EigKep=  3.63D-02  NBF=    27    10
 NBsUse=    37 1.00D-06 EigRej= -1.00D+00 NBFU=    27    10
 Initial guess from the checkpoint file:  "/tmp/Gau-6506.chk"
 B after Tr=     0.000000    0.000000    0.000000
         Rot=    1.000000    0.000000    0.000000   -0.000001 Ang=  -0.00 deg.
 Initial guess orbital symmetries:
       Occupied  (A') (A') (A') (A') (A') (A") (A') (A') (A') (A')
                 (A") (A') (A")
       Virtual   (A') (A') (A') (A') (A') (A") (A') (A') (A") (A')
                 (A") (A') (A") (A') (A') (A') (A") (A') (A') (A")
                 (A') (A') (A") (A')
 Keep R1 ints in memory in symmetry-blocked form, NReq=7153137.
 Requested convergence on RMS density matrix=1.00D-08 within 128 cycles.
 Requested convergence on MAX density matrix=1.00D-06.
 Requested convergence on             energy=1.00D-06.
 No special actions if energy rises.
 SCF Done:  E(RB3LYP) =  -535.759658512     A.U. after    5 cycles
            NFock=  5  Conv=0.94D-08     -V/T= 2.0026
 Calling FoFJK, ICntrl=      2127 FMM=F ISym2X=1 I1Cent= 0 IOpClX= 0 NMat=1 NMatS=1 NMatT=0.
 ***** Axes restored to original set *****
 -------------------------------------------------------------------
 Center     Atomic                   Forces (Hartrees/Bohr)
 Number     Number              X              Y              Z
 -------------------------------------------------------------------
      1        8           0.010502463   -0.000323110    0.007600468
      2       17          -0.006601144    0.000679108   -0.004663526
      3        1          -0.003901319   -0.000355998   -0.002936942
 -------------------------------------------------------------------
 Cartesian Forces:  Max     0.010502463 RMS     0.005353407

 GradGradGradGradGradGradGradGradGradGradGradGradGradGradGradGradGradGrad
 Berny optimization.
 FormGI is forming the generalized inverse of G from B-inverse, IUseBI=4.
 Internal  Forces:  Max     0.008996478 RMS     0.006814639
 Search for a saddle point.
 Step number   8 out of a maximum of  100
 All quantities printed in internal units (Hartrees-Bohrs-Radians)
 Swapping is turned off.
 Update second derivatives using D2CorX and points    8
 The second derivative matrix:
                          R1        R2        A1
           R1           0.21037
           R2          -0.00850   0.53245
           A1           0.05778  -0.00119   0.19121
 ITU=  0  0  0  0
     Eigenvalues ---    0.14216   0.25917   0.53270
 Eigenvectors required to have negative eigenvalues:
                          A1        R1        R2
   1                   -0.76221   0.64722   0.01177
 RFO step:  Lambda0=1.431382096D-01 Lambda= 0.00000000D+00.
 Linear search not attempted -- option 19 set.
 Iteration  1 RMS(Cart)=  0.00000332 RMS(Int)=  0.00000000
 Iteration  2 RMS(Cart)=  0.00000000 RMS(Int)=  0.00000000
 ClnCor:  largest displacement from symmetrization is 2.04D-15 for atom     2.
 Variable       Old X    -DE/DX   Delta X   Delta X   Delta X     New X
                                 (Linear)    (Quad)   (Total)
    R1        3.30223  -0.00764   0.00000   0.00000   0.00000   3.30223
    R2        1.83818  -0.00014   0.00000  -0.00000  -0.00000   1.83818
    A1        1.72506   0.00900   0.00000  -0.00000  -0.00000   1.72506
         Item               Value     Threshold  Converged?
 Maximum Force            0.008996     0.000450     NO 
 RMS     Force            0.006815     0.000300     NO 
 Maximum Displacement     0.000003     0.001800     YES
 RMS     Displacement     0.000003     0.001200     YES
 Predicted change in Energy= 5.029973D-08
 GradGradGradGradGradGradGradGradGradGradGradGradGradGradGradGradGradGrad

                          Input orientation:                          
 ---------------------------------------------------------------------
 Center     Atomic      Atomic             Coordinates (Angstroms)
 Number     Number       Type             X           Y           Z
 ---------------------------------------------------------------------
      1          8           0       -1.643062   -4.220669   -6.653078
      2         17           0       -0.328385   -3.784192   -5.587833
      3          1           0       -1.454329   -5.170763   -6.741882
 ---------------------------------------------------------------------
                    Distance matrix (angstroms):
                    1          2          3
     1  O    0.000000
     2  Cl   1.747465   0.000000
     3  H    0.972721   2.126537   0.000000
 Stoichiometry    ClHO
 Framework group  CS[SG(ClHO)]
 Deg. of freedom     3
 Full point group                 CS      NOp   2
 Largest Abelian subgroup         CS      NOp   2
 Largest concise Abelian subgroup C1      NOp   1
                         Standard orientation:                         
 ---------------------------------------------------------------------
 Center     Atomic      Atomic             Coordinates (Angstroms)
 Number     Number       Type             X           Y           Z
 ---------------------------------------------------------------------
      1          8           0        0.036968    1.136825   -0.000000
      2         17           0        0.036968   -0.610640    0.000000
      3          1           0       -0.924202    1.286281   -0.000000
 ---------------------------------------------------------------------
 Rotational constants (GHZ):         583.9915077          14.2931428          13.9516767
 Standard basis: SVP (5D, 7F)
 There are    29 symmetry adapted cartesian basis functions of A'  symmetry.
 There are    10 symmetry adapted cartesian basis functions of A"  symmetry.
 There are    27 symmetry adapted basis functions of A'  symmetry.
 There are    10 symmetry adapted basis functions of A"  symmetry.
    37 basis functions,    69 primitive gaussians,    39 cartesian basis functions
    13 alpha electrons       13 beta electrons
       nuclear repulsion energy        49.7667888529 Hartrees.
 NAtoms=    3 NActive=    3 NUniq=    3 SFac= 1.00D+00 NAtFMM=   60 NAOKFM=F Big=F
 Integral buffers will be    131072 words long.
 Raffenetti 2 integral format.
 Two-electron integral symmetry is turned on.
 Nuclear repulsion after empirical dispersion term =       49.7651730656 Hartrees.
 One-electron integrals computed using PRISM.
 NBasis=    37 RedAO= T EigKep=  3.63D-02  NBF=    27    10
 NBsUse=    37 1.00D-06 EigRej= -1.00D+00 NBFU=    27    10
 Initial guess from the checkpoint file:  "/tmp/Gau-6506.chk"
 B after Tr=    -0.000000   -0.000000   -0.000000
         Rot=    1.000000   -0.000000   -0.000000   -0.000000 Ang=  -0.00 deg.
 Initial guess orbital symmetries:
       Occupied  (A') (A') (A') (A') (A') (A") (A') (A') (A') (A')
                 (A") (A') (A")
       Virtual   (A') (A') (A') (A') (A') (A") (A') (A') (A") (A')
                 (A") (A') (A") (A') (A') (A') (A") (A') (A') (A")
                 (A') (A') (A") (A')
 Keep R1 ints in memory in symmetry-blocked form, NReq=7153137.
 Requested convergence on RMS density matrix=1.00D-08 within 128 cycles.
 Requested convergence on MAX density matrix=1.00D-06.
 Requested convergence on             energy=1.00D-06.
 No special actions if energy rises.
 SCF Done:  E(RB3LYP) =  -535.759658462     A.U. after    3 cycles
            NFock=  3  Conv=0.77D-08     -V/T= 2.0026
 Calling FoFJK, ICntrl=      2127 FMM=F ISym2X=1 I1Cent= 0 IOpClX= 0 NMat=1 NMatS=1 NMatT=0.
 ***** Axes restored to original set *****
 -------------------------------------------------------------------
 Center     Atomic                   Forces (Hartrees/Bohr)
 Number     Number              X              Y              Z
 -------------------------------------------------------------------
      1        8           0.010502597   -0.000321077    0.007601052
      2       17          -0.006601442    0.000679189   -0.004663724
      3        1          -0.003901156   -0.000358112   -0.002937328
 -------------------------------------------------------------------
 Cartesian Forces:  Max     0.010502597 RMS     0.005353601

 GradGradGradGradGradGradGradGradGradGradGradGradGradGradGradGradGradGrad
 Berny optimization.
 FormGI is forming the generalized inverse of G from B-inverse, IUseBI=4.
 Internal  Forces:  Max     0.008997038 RMS     0.006814993
 Search for a saddle point.
 Step number   9 out of a maximum of  100
 All quantities printed in internal units (Hartrees-Bohrs-Radians)
 Swapping is turned off.
 Update second derivatives using D2CorX and points    9
 The second derivative matrix:
                          R1        R2        A1
           R1           0.21037
           R2          -0.00850   0.53245
           A1           0.05778  -0.00119   0.19121
 ITU=  0  0  0  0
     Eigenvalues ---    0.14216   0.25917   0.53270
 Eigenvectors required to have negative eigenvalues:
                          A1        R1        R2
   1                   -0.76221   0.64722   0.01177
 RFO step:  Lambda0=1.431383100D-01 Lambda= 0.00000000D+00.
 Linear search not attempted -- option 19 set.
 Iteration  1 RMS(Cart)=  0.00000019 RMS(Int)=  0.00000000
 ClnCor:  largest displacement from symmetrization is 1.83D-15 for atom     1.
 Variable       Old X    -DE/DX   Delta X   Delta X   Delta X     New X
                                 (Linear)    (Quad)   (Total)
    R1        3.30223  -0.00764   0.00000   0.00000   0.00000   3.30223
    R2        1.83818  -0.00014   0.00000  -0.00000  -0.00000   1.83818
    A1        1.72506   0.00900   0.00000  -0.00000  -0.00000   1.72506
         Item               Value     Threshold  Converged?
 Maximum Force            0.008997     0.000450     NO 
 RMS     Force            0.006815     0.000300     NO 
 Maximum Displacement     0.000000     0.001800     YES
 RMS     Displacement     0.000000     0.001200     YES
 Predicted change in Energy= 2.740005D-09
 GradGradGradGradGradGradGradGradGradGradGradGradGradGradGradGradGradGrad

                          Input orientation:                          
 ---------------------------------------------------------------------
 Center     Atomic      Atomic             Coordinates (Angstroms)
 Number     Number       Type             X           Y           Z
 ---------------------------------------------------------------------
      1          8           0       -1.643062   -4.220669   -6.653078
      2         17           0       -0.328385   -3.784192   -5.587833
      3          1           0       -1.454329   -5.170763   -6.741882
 ---------------------------------------------------------------------
                    Distance matrix (angstroms):
                    1          2          3
     1  O    0.000000
     2  Cl   1.747465   0.000000
     3  H    0.972721   2.126537   0.000000
 Stoichiometry    ClHO
 Framework group  CS[SG(ClHO)]
 Deg. of freedom     3
 Full point group                 CS      NOp   2
 Largest Abelian subgroup         CS      NOp   2
 Largest concise Abelian subgroup C1      NOp   1
                         Standard orientation:                         
 ---------------------------------------------------------------------
 Center     Atomic      Atomic             Coordinates (Angstroms)
 Number     Number       Type             X           Y           Z
 ---------------------------------------------------------------------
      1          8           0        0.036968    1.136825   -0.000000
      2         17           0        0.036968   -0.610640    0.000000
      3          1           0       -0.924202    1.286281   -0.000000
 ---------------------------------------------------------------------
 Rotational constants (GHZ):         583.9915983          14.2931422          13.9516761
 Standard basis: SVP (5D, 7F)
 There are    29 symmetry adapted cartesian basis functions of A'  symmetry.
 There are    10 symmetry adapted cartesian basis functions of A"  symmetry.
 There are    27 symmetry adapted basis functions of A'  symmetry.
 There are    10 symmetry adapted basis functions of A"  symmetry.
    37 basis functions,    69 primitive gaussians,    39 cartesian basis functions
    13 alpha electrons       13 beta electrons
       nuclear repulsion energy        49.7667884277 Hartrees.
 NAtoms=    3 NActive=    3 NUniq=    3 SFac= 1.00D+00 NAtFMM=   60 NAOKFM=F Big=F
 Integral buffers will be    131072 words long.
 Raffenetti 2 integral format.
 Two-electron integral symmetry is turned on.
 Nuclear repulsion after empirical dispersion term =       49.7651726403 Hartrees.
 One-electron integrals computed using PRISM.
 NBasis=    37 RedAO= T EigKep=  3.63D-02  NBF=    27    10
 NBsUse=    37 1.00D-06 EigRej= -1.00D+00 NBFU=    27    10
 Initial guess from the checkpoint file:  "/tmp/Gau-6506.chk"
 B after Tr=    -0.000000   -0.000000    0.000000
         Rot=    1.000000    0.000000   -0.000000   -0.000000 Ang=   0.00 deg.
 Initial guess orbital symmetries:
       Occupied  (A') (A') (A') (A') (A') (A") (A') (A') (A') (A')
                 (A") (A') (A")
       Virtual   (A') (A') (A') (A') (A') (A") (A') (A') (A") (A')
                 (A") (A') (A") (A') (A') (A') (A") (A') (A') (A")
                 (A') (A') (A") (A')
 Keep R1 ints in memory in symmetry-blocked form, NReq=7153137.
 Requested convergence on RMS density matrix=1.00D-08 within 128 cycles.
 Requested convergence on MAX density matrix=1.00D-06.
 Requested convergence on             energy=1.00D-06.
 No special actions if energy rises.
 SCF Done:  E(RB3LYP) =  -535.759658459     A.U. after    1 cycles
            NFock=  1  Conv=0.94D-08     -V/T= 2.0026
 Calling FoFJK, ICntrl=      2127 FMM=F ISym2X=1 I1Cent= 0 IOpClX= 0 NMat=1 NMatS=1 NMatT=0.
 ***** Axes restored to original set *****
 -------------------------------------------------------------------
 Center     Atomic                   Forces (Hartrees/Bohr)
 Number     Number              X              Y              Z
 -------------------------------------------------------------------
      1        8           0.010502588   -0.000321009    0.007601061
      2       17          -0.006601436    0.000679191   -0.004663719
      3        1          -0.003901152   -0.000358183   -0.002937342
 -------------------------------------------------------------------
 Cartesian Forces:  Max     0.010502588 RMS     0.005353600

 GradGradGradGradGradGradGradGradGradGradGradGradGradGradGradGradGradGrad
 Berny optimization.
 FormGI is forming the generalized inverse of G from B-inverse, IUseBI=4.
 Internal  Forces:  Max     0.008997055 RMS     0.006814998
 Search for a saddle point.
 Step number  10 out of a maximum of  100
 All quantities printed in internal units (Hartrees-Bohrs-Radians)
 Swapping is turned off.
 Update second derivatives using D2CorX and points   10
 The second derivative matrix:
                          R1        R2        A1
           R1           0.21037
           R2          -0.00850   0.53245
           A1           0.05778  -0.00119   0.19121
 ITU=  0  0  0  0
     Eigenvalues ---    0.14216   0.25917   0.53270
 Eigenvectors required to have negative eigenvalues:
                          A1        R1        R2
   1                   -0.76221   0.64722   0.01177
 RFO step:  Lambda0=1.431383113D-01 Lambda= 0.00000000D+00.
 Linear search not attempted -- option 19 set.
 Iteration  1 RMS(Cart)=  0.00000006 RMS(Int)=  0.00000000
 ClnCor:  largest displacement from symmetrization is 2.55D-15 for atom     3.
 Variable       Old X    -DE/DX   Delta X   Delta X   Delta X     New X
                                 (Linear)    (Quad)   (Total)
    R1        3.30223  -0.00764   0.00000   0.00000   0.00000   3.30223
    R2        1.83818  -0.00014   0.00000  -0.00000  -0.00000   1.83818
    A1        1.72506   0.00900   0.00000  -0.00000  -0.00000   1.72505
         Item               Value     Threshold  Converged?
 Maximum Force            0.008997     0.000450     NO 
 RMS     Force            0.006815     0.000300     NO 
 Maximum Displacement     0.000000     0.001800     YES
 RMS     Displacement     0.000000     0.001200     YES
 Predicted change in Energy= 1.026590D-09
 GradGradGradGradGradGradGradGradGradGradGradGradGradGradGradGradGradGrad

                          Input orientation:                          
 ---------------------------------------------------------------------
 Center     Atomic      Atomic             Coordinates (Angstroms)
 Number     Number       Type             X           Y           Z
 ---------------------------------------------------------------------
      1          8           0       -1.643062   -4.220669   -6.653078
      2         17           0       -0.328385   -3.784192   -5.587833
      3          1           0       -1.454329   -5.170763   -6.741882
 ---------------------------------------------------------------------
                    Distance matrix (angstroms):
                    1          2          3
     1  O    0.000000
     2  Cl   1.747465   0.000000
     3  H    0.972721   2.126537   0.000000
 Stoichiometry    ClHO
 Framework group  CS[SG(ClHO)]
 Deg. of freedom     3
 Full point group                 CS      NOp   2
 Largest Abelian subgroup         CS      NOp   2
 Largest concise Abelian subgroup C1      NOp   1
                         Standard orientation:                         
 ---------------------------------------------------------------------
 Center     Atomic      Atomic             Coordinates (Angstroms)
 Number     Number       Type             X           Y           Z
 ---------------------------------------------------------------------
      1          8           0        0.036968    1.136825   -0.000000
      2         17           0        0.036968   -0.610640    0.000000
      3          1           0       -0.924202    1.286281   -0.000000
 ---------------------------------------------------------------------
 Rotational constants (GHZ):         583.9916382          14.2931417          13.9516757
 Standard basis: SVP (5D, 7F)
 There are    29 symmetry adapted cartesian basis functions of A'  symmetry.
 There are    10 symmetry adapted cartesian basis functions of A"  symmetry.
 There are    27 symmetry adapted basis functions of A'  symmetry.
 There are    10 symmetry adapted basis functions of A"  symmetry.
    37 basis functions,    69 primitive gaussians,    39 cartesian basis functions
    13 alpha electrons       13 beta electrons
       nuclear repulsion energy        49.7667879367 Hartrees.
 NAtoms=    3 NActive=    3 NUniq=    3 SFac= 1.00D+00 NAtFMM=   60 NAOKFM=F Big=F
 Integral buffers will be    131072 words long.
 Raffenetti 2 integral format.
 Two-electron integral symmetry is turned on.
 Nuclear repulsion after empirical dispersion term =       49.7651721493 Hartrees.
 One-electron integrals computed using PRISM.
 NBasis=    37 RedAO= T EigKep=  3.63D-02  NBF=    27    10
 NBsUse=    37 1.00D-06 EigRej= -1.00D+00 NBFU=    27    10
 Initial guess from the checkpoint file:  "/tmp/Gau-6506.chk"
 B after Tr=     0.000000    0.000000    0.000000
         Rot=    1.000000    0.000000   -0.000000    0.000000 Ang=   0.00 deg.
 Initial guess orbital symmetries:
       Occupied  (A') (A') (A') (A') (A') (A") (A') (A') (A') (A')
                 (A") (A') (A")
       Virtual   (A') (A') (A') (A') (A') (A") (A') (A') (A") (A')
                 (A") (A') (A") (A') (A') (A') (A") (A') (A') (A")
                 (A') (A') (A") (A')
 Keep R1 ints in memory in symmetry-blocked form, NReq=7153137.
 Requested convergence on RMS density matrix=1.00D-08 within 128 cycles.
 Requested convergence on MAX density matrix=1.00D-06.
 Requested convergence on             energy=1.00D-06.
 No special actions if energy rises.
 SCF Done:  E(RB3LYP) =  -535.759658458     A.U. after    3 cycles
            NFock=  3  Conv=0.21D-09     -V/T= 2.0026
 Calling FoFJK, ICntrl=      2127 FMM=F ISym2X=1 I1Cent= 0 IOpClX= 0 NMat=1 NMatS=1 NMatT=0.
 ***** Axes restored to original set *****
 -------------------------------------------------------------------
 Center     Atomic                   Forces (Hartrees/Bohr)
 Number     Number              X              Y              Z
[...]
                                 (Linear)    (Quad)   (Total)
    R1        3.30223  -0.00764   0.00000   0.00000   0.00000   3.30223
    R2        1.83818  -0.00014   0.00000  -0.00000  -0.00000   1.83818
    A1        1.72505   0.00900   0.00000  -0.00000  -0.00000   1.72505
         Item               Value     Threshold  Converged?
 Maximum Force            0.008997     0.000450     NO 
 RMS     Force            0.006815     0.000300     NO 
 Maximum Displacement     0.000000     0.001800     YES
 RMS     Displacement     0.000000     0.001200     YES
 Predicted change in Energy= 2.524247D-10
 GradGradGradGradGradGradGradGradGradGradGradGradGradGradGradGradGradGrad

                          Input orientation:                          
 ---------------------------------------------------------------------
 Center     Atomic      Atomic             Coordinates (Angstroms)
 Number     Number       Type             X           Y           Z
 ---------------------------------------------------------------------
      1          8           0       -1.643062   -4.220668   -6.653079
      2         17           0       -0.328385   -3.784192   -5.587833
      3          1           0       -1.454329   -5.170763   -6.741882
 ---------------------------------------------------------------------
                    Distance matrix (angstroms):
                    1          2          3
     1  O    0.000000
     2  Cl   1.747466   0.000000
     3  H    0.972721   2.126536   0.000000
 Stoichiometry    ClHO
 Framework group  CS[SG(ClHO)]
 Deg. of freedom     3
 Full point group                 CS      NOp   2
 Largest Abelian subgroup         CS      NOp   2
 Largest concise Abelian subgroup C1      NOp   1
                         Standard orientation:                         
 ---------------------------------------------------------------------
 Center     Atomic      Atomic             Coordinates (Angstroms)
 Number     Number       Type             X           Y           Z
 ---------------------------------------------------------------------
      1          8           0        0.036968    1.136826    0.000000
      2         17           0        0.036968   -0.610640    0.000000
      3          1           0       -0.924203    1.286280    0.000000
 ---------------------------------------------------------------------
 Rotational constants (GHZ):         583.9911056          14.2931283          13.9516626
 Standard basis: SVP (5D, 7F)
 There are    29 symmetry adapted cartesian basis functions of A'  symmetry.
 There are    10 symmetry adapted cartesian basis functions of A"  symmetry.
 There are    27 symmetry adapted basis functions of A'  symmetry.
 There are    10 symmetry adapted basis functions of A"  symmetry.
    37 basis functions,    69 primitive gaussians,    39 cartesian basis functions
    13 alpha electrons       13 beta electrons
       nuclear repulsion energy        49.7667666752 Hartrees.
 NAtoms=    3 NActive=    3 NUniq=    3 SFac= 1.00D+00 NAtFMM=   60 NAOKFM=F Big=F
 Integral buffers will be    131072 words long.
 Raffenetti 2 integral format.
 Two-electron integral symmetry is turned on.
 Nuclear repulsion after empirical dispersion term =       49.7651508877 Hartrees.
 One-electron integrals computed using PRISM.
 NBasis=    37 RedAO= T EigKep=  3.63D-02  NBF=    27    10
 NBsUse=    37 1.00D-06 EigRej= -1.00D+00 NBFU=    27    10
 Initial guess from the checkpoint file:  "/tmp/Gau-6506.chk"
 B after Tr=     0.000000    0.000000    0.000000
         Rot=    1.000000    0.000000   -0.000000    0.000000 Ang=   0.00 deg.
 Initial guess orbital symmetries:
       Occupied  (A') (A') (A') (A') (A') (A") (A') (A') (A') (A')
                 (A") (A') (A")
       Virtual   (A') (A') (A') (A') (A') (A") (A') (A') (A") (A')
                 (A") (A') (A") (A') (A') (A') (A") (A') (A') (A")
                 (A') (A') (A") (A')
 Keep R1 ints in memory in symmetry-blocked form, NReq=7153137.
 Requested convergence on RMS density matrix=1.00D-08 within 128 cycles.
 Requested convergence on MAX density matrix=1.00D-06.
 Requested convergence on             energy=1.00D-06.
 No special actions if energy rises.
 SCF Done:  E(RB3LYP) =  -535.759658425     A.U. after    1 cycles
            NFock=  1  Conv=0.34D-08     -V/T= 2.0026
 Calling FoFJK, ICntrl=      2127 FMM=F ISym2X=1 I1Cent= 0 IOpClX= 0 NMat=1 NMatS=1 NMatT=0.
 ***** Axes restored to original set *****
 -------------------------------------------------------------------
 Center     Atomic                   Forces (Hartrees/Bohr)
 Number     Number              X              Y              Z
 -------------------------------------------------------------------
      1        8           0.010502959   -0.000320946    0.007601347
      2       17          -0.006601683    0.000679220   -0.004663893
      3        1          -0.003901276   -0.000358274   -0.002937454
 -------------------------------------------------------------------
 Cartesian Forces:  Max     0.010502959 RMS     0.005353794

 GradGradGradGradGradGradGradGradGradGradGradGradGradGradGradGradGradGrad
 Berny optimization.
 Internal  Forces:  Max     0.008997381 RMS     0.006815247
 Search for a saddle point.
 Step number  99 out of a maximum of  100
 All quantities printed in internal units (Hartrees-Bohrs-Radians)
 Swapping is turned off.
 Update second derivatives using D2CorX and points   99
 The second derivative matrix:
                          R1        R2        A1
           R1           0.21037
           R2          -0.00850   0.53245
           A1           0.05778  -0.00119   0.19121
 ITU=  0  0  0  0
     Eigenvalues ---    0.14216   0.25917   0.53270
 Eigenvectors required to have negative eigenvalues:
                          A1        R1        R2
   1                   -0.76221   0.64722   0.01177
 RFO step:  Lambda0=1.431383821D-01 Lambda= 0.00000000D+00.
 Linear search not attempted -- option 19 set.
 Iteration  1 RMS(Cart)=  0.00000003 RMS(Int)=  0.00000000
 ClnCor:  largest displacement from symmetrization is 1.99D-15 for atom     3.
 Variable       Old X    -DE/DX   Delta X   Delta X   Delta X     New X
                                 (Linear)    (Quad)   (Total)
    R1        3.30223  -0.00764   0.00000   0.00000   0.00000   3.30223
    R2        1.83818  -0.00014   0.00000   0.00000   0.00000   1.83818
    A1        1.72505   0.00900   0.00000  -0.00000  -0.00000   1.72505
         Item               Value     Threshold  Converged?
 Maximum Force            0.008997     0.000450     NO 
 RMS     Force            0.006815     0.000300     NO 
 Maximum Displacement     0.000000     0.001800     YES
 RMS     Displacement     0.000000     0.001200     YES
 Predicted change in Energy= 5.345466D-10
 GradGradGradGradGradGradGradGradGradGradGradGradGradGradGradGradGradGrad

                          Input orientation:                          
 ---------------------------------------------------------------------
 Center     Atomic      Atomic             Coordinates (Angstroms)
 Number     Number       Type             X           Y           Z
 ---------------------------------------------------------------------
      1          8           0       -1.643062   -4.220668   -6.653079
      2         17           0       -0.328385   -3.784192   -5.587833
      3          1           0       -1.454329   -5.170763   -6.741881
 ---------------------------------------------------------------------
                    Distance matrix (angstroms):
                    1          2          3
     1  O    0.000000
     2  Cl   1.747466   0.000000
     3  H    0.972721   2.126536   0.000000
 Stoichiometry    ClHO
 Framework group  CS[SG(ClHO)]
 Deg. of freedom     3
 Full point group                 CS      NOp   2
 Largest Abelian subgroup         CS      NOp   2
 Largest concise Abelian subgroup C1      NOp   1
                         Standard orientation:                         
 ---------------------------------------------------------------------
 Center     Atomic      Atomic             Coordinates (Angstroms)
 Number     Number       Type             X           Y           Z
 ---------------------------------------------------------------------
      1          8           0        0.036968    1.136826    0.000000
      2         17           0        0.036968   -0.610640   -0.000000
      3          1           0       -0.924203    1.286280    0.000000
 ---------------------------------------------------------------------
 Rotational constants (GHZ):         583.9910683          14.2931282          13.9516625
 Standard basis: SVP (5D, 7F)
 There are    29 symmetry adapted cartesian basis functions of A'  symmetry.
 There are    10 symmetry adapted cartesian basis functions of A"  symmetry.
 There are    27 symmetry adapted basis functions of A'  symmetry.
 There are    10 symmetry adapted basis functions of A"  symmetry.
    37 basis functions,    69 primitive gaussians,    39 cartesian basis functions
    13 alpha electrons       13 beta electrons
       nuclear repulsion energy        49.7667663485 Hartrees.
 NAtoms=    3 NActive=    3 NUniq=    3 SFac= 1.00D+00 NAtFMM=   60 NAOKFM=F Big=F
 Integral buffers will be    131072 words long.
 Raffenetti 2 integral format.
 Two-electron integral symmetry is turned on.
 Nuclear repulsion after empirical dispersion term =       49.7651505611 Hartrees.
 One-electron integrals computed using PRISM.
 NBasis=    37 RedAO= T EigKep=  3.63D-02  NBF=    27    10
 NBsUse=    37 1.00D-06 EigRej= -1.00D+00 NBFU=    27    10
 Initial guess from the checkpoint file:  "/tmp/Gau-6506.chk"
 B after Tr=     0.000000   -0.000000   -0.000000
         Rot=    1.000000   -0.000000    0.000000   -0.000000 Ang=   0.00 deg.
 Initial guess orbital symmetries:
       Occupied  (A') (A') (A') (A') (A') (A") (A') (A') (A') (A')
                 (A") (A') (A")
       Virtual   (A') (A') (A') (A') (A') (A") (A') (A') (A") (A')
                 (A") (A') (A") (A') (A') (A') (A") (A') (A') (A")
                 (A') (A') (A") (A')
 Keep R1 ints in memory in symmetry-blocked form, NReq=7153137.
 Requested convergence on RMS density matrix=1.00D-08 within 128 cycles.
 Requested convergence on MAX density matrix=1.00D-06.
 Requested convergence on             energy=1.00D-06.
 No special actions if energy rises.
 SCF Done:  E(RB3LYP) =  -535.759658424     A.U. after    1 cycles
            NFock=  1  Conv=0.73D-08     -V/T= 2.0026
 Calling FoFJK, ICntrl=      2127 FMM=F ISym2X=1 I1Cent= 0 IOpClX= 0 NMat=1 NMatS=1 NMatT=0.
 ***** Axes restored to original set *****
 -------------------------------------------------------------------
 Center     Atomic                   Forces (Hartrees/Bohr)
 Number     Number              X              Y              Z
 -------------------------------------------------------------------
      1        8           0.010502958   -0.000321018    0.007601330
      2       17          -0.006601668    0.000679220   -0.004663882
      3        1          -0.003901290   -0.000358203   -0.002937448
 -------------------------------------------------------------------
 Cartesian Forces:  Max     0.010502958 RMS     0.005353789

 GradGradGradGradGradGradGradGradGradGradGradGradGradGradGradGradGradGrad
 Berny optimization.
 Internal  Forces:  Max     0.008997378 RMS     0.006815240
 Search for a saddle point.
 Step number 100 out of a maximum of  100
 All quantities printed in internal units (Hartrees-Bohrs-Radians)
 Swapping is turned off.
 Update second derivatives using D2CorX and points  100
 The second derivative matrix:
                          R1        R2        A1
           R1           0.21037
           R2          -0.00850   0.53245
           A1           0.05778  -0.00119   0.19121
 ITU=  0  0  0  0
     Eigenvalues ---    0.14216   0.25917   0.53270
 Eigenvectors required to have negative eigenvalues:
                          A1        R1        R2
   1                   -0.76221   0.64722   0.01177
 RFO step:  Lambda0=1.431383800D-01 Lambda= 0.00000000D+00.
 Linear search not attempted -- option 19 set.
 Iteration  1 RMS(Cart)=  0.00000006 RMS(Int)=  0.00000000
 ClnCor:  largest displacement from symmetrization is 1.11D-16 for atom     2.
 Variable       Old X    -DE/DX   Delta X   Delta X   Delta X     New X
                                 (Linear)    (Quad)   (Total)
    R1        3.30223  -0.00764   0.00000   0.00000   0.00000   3.30223
    R2        1.83818  -0.00014   0.00000  -0.00000  -0.00000   1.83818
    A1        1.72505   0.00900   0.00000  -0.00000  -0.00000   1.72505
         Item               Value     Threshold  Converged?
 Maximum Force            0.008997     0.000450     NO 
 RMS     Force            0.006815     0.000300     NO 
 Maximum Displacement     0.000000     0.001800     YES
 RMS     Displacement     0.000000     0.001200     YES
 Predicted change in Energy= 1.107124D-09
 Optimization stopped.
    -- Number of steps exceeded,  NStep= 100
    -- Flag reset to prevent archiving.
                           ----------------------------
                           ! Non-Optimized Parameters !
                           ! (Angstroms and Degrees)  !
 --------------------------                            --------------------------
 ! Name  Definition              Value          Derivative Info.                !
 --------------------------------------------------------------------------------
 ! R1    R(1,2)                  1.7475         -DE/DX =   -0.0076              !
 ! R2    R(1,3)                  0.9727         -DE/DX =   -0.0001              !
 ! A1    A(2,1,3)               98.8382         -DE/DX =    0.009               !
 --------------------------------------------------------------------------------
 GradGradGradGradGradGradGradGradGradGradGradGradGradGradGradGradGradGrad

                          Input orientation:                          
 ---------------------------------------------------------------------
 Center     Atomic      Atomic             Coordinates (Angstroms)
 Number     Number       Type             X           Y           Z
 ---------------------------------------------------------------------
      1          8           0       -1.643062   -4.220668   -6.653079
      2         17           0       -0.328385   -3.784192   -5.587833
      3          1           0       -1.454329   -5.170763   -6.741881
 ---------------------------------------------------------------------
                    Distance matrix (angstroms):
                    1          2          3
     1  O    0.000000
     2  Cl   1.747466   0.000000
     3  H    0.972721   2.126536   0.000000
 Stoichiometry    ClHO
 Framework group  CS[SG(ClHO)]
 Deg. of freedom     3
 Full point group                 CS      NOp   2
 Largest Abelian subgroup         CS      NOp   2
 Largest concise Abelian subgroup C1      NOp   1
                         Standard orientation:                         
 ---------------------------------------------------------------------
 Center     Atomic      Atomic             Coordinates (Angstroms)
 Number     Number       Type             X           Y           Z
 ---------------------------------------------------------------------
      1          8           0        0.036968    1.136826    0.000000
      2         17           0        0.036968   -0.610640   -0.000000
      3          1           0       -0.924203    1.286280    0.000000
 ---------------------------------------------------------------------
 Rotational constants (GHZ):         583.9910683          14.2931282          13.9516625

 **********************************************************************

            Population analysis using the SCF density.

 **********************************************************************

 Orbital symmetries:
       Occupied  (A') (A') (A') (A') (A') (A") (A') (A') (A') (A')
                 (A") (A') (A")
       Virtual   (A') (A') (A') (A') (A') (A") (A') (A') (A") (A')
                 (A") (A') (A") (A') (A') (A') (A") (A') (A') (A")
                 (A') (A') (A") (A')
 The electronic state is 1-A'.
 Alpha  occ. eigenvalues -- -101.54061 -19.19962  -9.49246  -7.26574  -7.24958
 Alpha  occ. eigenvalues --   -7.24923  -1.04197  -0.79139  -0.51690  -0.43400
 Alpha  occ. eigenvalues --   -0.39564  -0.31590  -0.28205
 Alpha virt. eigenvalues --   -0.07909   0.05894   0.45856   0.55187   0.68835
 Alpha virt. eigenvalues --    0.69660   0.71106   0.75960   0.76149   0.83928
 Alpha virt. eigenvalues --    0.84493   0.93981   0.99978   1.02577   1.10944
 Alpha virt. eigenvalues --    1.34417   1.40907   1.53773   2.16144   2.61520
 Alpha virt. eigenvalues --    2.86208   2.91187   2.92315   3.64066
          Condensed to atoms (all electrons):
               1          2          3
     1  O    7.867158   0.120971   0.304066
     2  Cl   0.120971  16.820070  -0.022799
     3  H    0.304066  -0.022799   0.508296
 Mulliken charges:
               1
     1  O   -0.292195
     2  Cl   0.081758
     3  H    0.210437
 Sum of Mulliken charges =   0.00000
 Mulliken charges with hydrogens summed into heavy atoms:
               1
     1  O   -0.081758
     2  Cl   0.081758
 Electronic spatial extent (au):  <R**2>=            107.0201
 Charge=             -0.0000 electrons
 Dipole moment (field-independent basis, Debye):
    X=             -1.6696    Y=              0.0005    Z=             -0.0000  Tot=              1.6696
 Quadrupole moment (field-independent basis, Debye-Ang):
   XX=            -16.5049   YY=            -16.5093   ZZ=            -18.6101
   XY=             -2.4676   XZ=              0.0000   YZ=              0.0000
 Traceless Quadrupole moment (field-independent basis, Debye-Ang):
   XX=              0.7032   YY=              0.6988   ZZ=             -1.4020
   XY=             -2.4676   XZ=              0.0000   YZ=              0.0000
 Octapole moment (field-independent basis, Debye-Ang**2):
  XXX=             -2.2146  YYY=              0.3097  ZZZ=             -0.0000  XYY=             -3.3897
  XXY=              3.2311  XXZ=             -0.0000  XZZ=             -0.2455  YZZ=              0.6230
  YYZ=             -0.0000  XYZ=              0.0000
 Hexadecapole moment (field-independent basis, Debye-Ang**3):
 XXXX=            -16.7928 YYYY=            -79.7711 ZZZZ=            -16.6329 XXXY=             -0.4371
 XXXZ=              0.0000 YYYX=             -2.8400 YYYZ=             -0.0000 ZZZX=              0.0000
 ZZZY=             -0.0000 XXYY=            -15.1794 XXZZ=             -5.8722 YYZZ=            -18.1827
 XXYZ=             -0.0000 YYXZ=              0.0000 ZZXY=              0.5069
 N-N= 4.976515056106D+01 E-N=-1.372513505449D+03  KE= 5.343607296206D+02
 Symmetry A'   KE= 4.836056828194D+02
 Symmetry A"   KE= 5.075504680121D+01


 I MET A TRAVELLER FROM AN ANTIQUE LAND
 WHO SAID... TWO VAST AND TRUNKLESS LEGS OF STONE
 STAND IN THE DESERT..... NEAR THEM,  ON THE SAND,
 HALF SUNK,  A SHATTERED VISAGE LIES,  WHOSE FROWN,
 AND WRINKLED LIP,  AND SNEER OF COLD COMMAND
 TELL THAT ITS SCULPTOR WELL THOSE PASSIONS READ
 WHICH YET SURVIVE,  STAMPED ON THESE LIFELESS THINGS
 THE HAND THAT MOCKED THEM,  AND THE HEART THAT FED-
 AND ON THE PEDESTAL THESE WORDS APPEAR 
 MY NAME IS OZYMANDIAS, KING OF KINGS--   
 LOOK ON MY WORKS YE MIGHTY AND DESPAIR. 
 NOTHING BESIDE REMAINS,  ROUND THE DECAY 
 OF THAT COLOSSAL WRECK,  BOUNDLESS AND BARE
 THE LONE AND LEVEL SANDS STRETCH FAR AWAY.
                                    SHELLEY
 Error termination request processed by link 9999.
 Error termination via Lnk1e in /share/apps/g16.a03/g16/l9999.exe at Thu Mar  6 16:40:19 2025.
 Job cpu time:       0 days  0 hours 12 minutes 54.9 seconds.
 Elapsed time:       0 days  0 hours  1 minutes 40.4 seconds.
 File lengths (MBytes):  RWF=      6 Int=      0 D2E=      0 Chk=      1 Scr=      1
