 Entering Gaussian System, Link 0=g16
 Input=ts.gjf
 Output=ts.log
 Initial command:
 /share/apps/g16.a03/g16/l1.exe "/tmp/Gau-11230.inp" -scrdir="/tmp/"
 Entering Link 1 = /share/apps/g16.a03/g16/l1.exe PID=     11232.
  
 Copyright (c) 1988,1990,1992,1993,1995,1998,2003,2009,2016,
            Gaussian, Inc.  All Rights Reserved.
  
 This is part of the Gaussian(R) 16 program.  It is based on
 the Gaussian(R) 09 system (copyright 2009, Gaussian, Inc.),
 the Gaussian(R) 03 system (copyright 2003, Gaussian, Inc.),
 the Gaussian(R) 98 system (copyright 1998, Gaussian, Inc.),
 the Gaussian(R) 94 system (copyright 1995, Gaussian, Inc.),
 the Gaussian 92(TM) system (copyright 1992, Gaussian, Inc.),
 the Gaussian 90(TM) system (copyright 1990, Gaussian, Inc.),
 the Gaussian 88(TM) system (copyright 1988, Gaussian, Inc.),
 the Gaussian 86(TM) system (copyright 1986, Carnegie Mellon
 University), and the Gaussian 82(TM) system (copyright 1983,
 Carnegie Mellon University). Gaussian is a federally registered
 trademark of Gaussian, Inc.
  
 This software contains proprietary and confidential information,
 including trade secrets, belonging to Gaussian, Inc.
  
 This software is provided under written license and may be
 used, copied, transmitted, or stored only in accord with that
 written license.
  
 The following legend is applicable only to US Government
 contracts under FAR:
  
                    RESTRICTED RIGHTS LEGEND
  
 Use, reproduction and disclosure by the US Government is
 subject to restrictions as set forth in subparagraphs (a)
 and (c) of the Commercial Computer Software - Restricted
 Rights clause in FAR 52.227-19.
  
 Gaussian, Inc.
 340 Quinnipiac St., Bldg. 40, Wallingford CT 06492
  
  
 ---------------------------------------------------------------
 Warning -- This program may not be used in any manner that
 competes with the business of Gaussian, Inc. or will provide
 assistance to any competitor of Gaussian, Inc.  The licensee
 of this program is prohibited from giving any competitor of
 Gaussian, Inc. access to this program.  By using this program,
 the user acknowledges that Gaussian, Inc. is engaged in the
 business of creating and licensing software in the field of
 computational chemistry and represents and warrants to the
 licensee that it is not a competitor of Gaussian, Inc. and that
 it will not use this program in any manner prohibited above.
 ---------------------------------------------------------------
  

 Cite this work as:
 Gaussian 16, Revision A.03,
 M. J. Frisch, G. W. Trucks, H. B. Schlegel, G. E. Scuseria, 
 M. A. Robb, J. R. Cheeseman, G. Scalmani, V. Barone, 
 G. A. Petersson, H. Nakatsuji, X. Li, M. Caricato, A. V. Marenich, 
 J. Bloino, B. G. Janesko, R. Gomperts, B. Mennucci, H. P. Hratchian, 
 J. V. Ortiz, A. F. Izmaylov, J. L. Sonnenberg, D. Williams-Young, 
 F. Ding, F. Lipparini, F. Egidi, J. Goings, B. Peng, A. Petrone, 
 T. Henderson, D. Ranasinghe, V. G. Zakrzewski, J. Gao, N. Rega, 
 G. Zheng, W. Liang, M. Hada, M. Ehara, K. Toyota, R. Fukuda, 
 J. Hasegawa, M. Ishida, T. Nakajima, Y. Honda, O. Kitao, H. Nakai, 
 T. Vreven, K. Throssell, J. A. Montgomery, Jr., J. E. Peralta, 
 F. Ogliaro, M. J. Bearpark, J. J. Heyd, E. N. Brothers, K. N. Kudin, 
 V. N. Staroverov, T. A. Keith, R. Kobayashi, J. Normand, 
 K. Raghavachari, A. P. Rendell, J. C. Burant, S. S. Iyengar, 
 J. Tomasi, M. Cossi, J. M. Millam, M. Klene, C. Adamo, R. Cammi, 
 J. W. Ochterski, R. L. Martin, K. Morokuma, O. Farkas, 
 J. B. Foresman, and D. J. Fox, Gaussian, Inc., Wallingford CT, 2016.
 
 ******************************************
 Gaussian 16:  EM64L-G16RevA.03 25-Dec-2016
                 6-Mar-2025 
 ******************************************
 %nproc=8
 Will use up to    8 processors via shared memory.
 %mem=4000MB
 --------------------------------------------------------------------
 #opt=(noeigen,calcfc,ts,recalc=5,maxcyc=200) freq B3LYP/SVP em=GD3BJ
 --------------------------------------------------------------------
 1/5=1,6=200,10=4,11=1,18=20,26=3,38=1,71=5/1,3;
 2/9=110,12=2,17=6,18=5,40=1/2;
 3/5=18,7=101,11=2,25=1,30=1,71=2,74=-5,124=41,140=1/1,2,3;
 4//1;
 5/5=2,38=5/2;
 8/6=4,10=90,11=11/1;
 11/6=1,8=1,9=11,15=111,16=1/1,2,10;
 10/6=1,13=1/2;
 6/7=2,8=2,9=2,10=2,28=1/1;
 7/10=1,18=20,25=1/1,2,3,16;
 1/5=1,6=200,10=4,11=1,18=20,26=3,71=5/3(2);
 2/9=110/2;
 99//99;
 2/9=110/2;
 3/5=18,7=101,11=2,25=1,30=1,71=1,74=-5,124=41/1,2,3;
 4/5=5,16=3,69=1/1;
 5/5=2,38=5/2;
 7//1,2,3,16;
 1/5=1,6=200,11=1,18=20,26=3,71=5/3(-5);
 2/9=110/2;
 6/7=2,8=2,9=2,10=2,19=2,28=1/1;
 99/9=1/99;
 -----------
 ts-1456.gjf
 -----------
 Symbolic Z-matrix:
 Charge =  0 Multiplicity = 1
 O                     0.74797  -4.81175  -3.11351 
 Cl                   -0.67144  -4.60819  -5.26629 
 H                     0.12622  -4.5808   -2.41197 
 
 Add virtual bond connecting atoms Cl2        and O1         Dist= 4.89D+00.

 GradGradGradGradGradGradGradGradGradGradGradGradGradGradGradGradGradGrad
 Berny optimization.
 Initialization pass.
                           ----------------------------
                           !    Initial Parameters    !
                           ! (Angstroms and Degrees)  !
 --------------------------                            --------------------------
 ! Name  Definition              Value          Derivative Info.                !
 --------------------------------------------------------------------------------
 ! R1    R(1,2)                  2.5866         calculate D2E/DX2 analytically  !
 ! R2    R(1,3)                  0.9654         calculate D2E/DX2 analytically  !
 ! A1    A(2,1,3)              103.4475         calculate D2E/DX2 analytically  !
 --------------------------------------------------------------------------------
 Trust Radius=3.00D-01 FncErr=1.00D-07 GrdErr=1.00D-06 EigMax=2.50D+02 EigMin=1.00D-04
 Number of steps in this run=    100 maximum allowed number of steps=    100.
 Search for a saddle point of order  1.
 GradGradGradGradGradGradGradGradGradGradGradGradGradGradGradGradGradGrad

                          Input orientation:                          
 ---------------------------------------------------------------------
 Center     Atomic      Atomic             Coordinates (Angstroms)
 Number     Number       Type             X           Y           Z
 ---------------------------------------------------------------------
      1          8           0        0.747969   -4.811747   -3.113512
      2         17           0       -0.671445   -4.608195   -5.266291
      3          1           0        0.126221   -4.580800   -2.411968
 ---------------------------------------------------------------------
                    Distance matrix (angstroms):
                    1          2          3
     1  O    0.000000
     2  Cl   2.586624   0.000000
     3  H    0.965439   2.963811   0.000000
 Stoichiometry    ClHO
 Framework group  CS[SG(ClHO)]
 Deg. of freedom     3
 Full point group                 CS      NOp   2
 Largest Abelian subgroup         CS      NOp   2
 Largest concise Abelian subgroup C1      NOp   1
                         Standard orientation:                         
 ---------------------------------------------------------------------
 Center     Atomic      Atomic             Coordinates (Angstroms)
 Number     Number       Type             X           Y           Z
 ---------------------------------------------------------------------
      1          8           0        0.036114    1.682619   -0.000000
      2         17           0        0.036114   -0.904005    0.000000
      3          1           0       -0.902855    1.907136   -0.000000
 ---------------------------------------------------------------------
 Rotational constants (GHZ):         611.5669934           6.5273691           6.4584370
 Standard basis: SVP (5D, 7F)
 There are    29 symmetry adapted cartesian basis functions of A'  symmetry.
 There are    10 symmetry adapted cartesian basis functions of A"  symmetry.
 There are    27 symmetry adapted basis functions of A'  symmetry.
 There are    10 symmetry adapted basis functions of A"  symmetry.
    37 basis functions,    69 primitive gaussians,    39 cartesian basis functions
    13 alpha electrons       13 beta electrons
       nuclear repulsion energy        35.2434269237 Hartrees.
 NAtoms=    3 NActive=    3 NUniq=    3 SFac= 1.00D+00 NAtFMM=   60 NAOKFM=F Big=F
 Integral buffers will be    131072 words long.
 Raffenetti 2 integral format.
 Two-electron integral symmetry is turned on.
 Nuclear repulsion after empirical dispersion term =       35.2419121428 Hartrees.
 One-electron integrals computed using PRISM.
 NBasis=    37 RedAO= T EigKep=  5.39D-02  NBF=    27    10
 NBsUse=    37 1.00D-06 EigRej= -1.00D+00 NBFU=    27    10
 ExpMin= 1.22D-01 ExpMax= 1.04D+04 ExpMxC= 1.57D+03 IAcc=3 IRadAn=         5 AccDes= 0.00D+00
 Harris functional with IExCor=  402 and IRadAn=       5 diagonalized for initial guess.
 HarFok:  IExCor=  402 AccDes= 0.00D+00 IRadAn=         5 IDoV= 1 UseB2=F ITyADJ=14
 ICtDFT=  3500011 ScaDFX=  1.000000  1.000000  1.000000  1.000000
 FoFCou: FMM=F IPFlag=           0 FMFlag=      100000 FMFlg1=           0
         NFxFlg=           0 DoJE=T BraDBF=F KetDBF=T FulRan=T
         wScrn=  0.000000 ICntrl=       500 IOpCl=  0 I1Cent=   200000004 NGrid=           0
         NMat0=    1 NMatS0=      1 NMatT0=    0 NMatD0=    1 NMtDS0=    0 NMtDT0=    0
 Petite list used in FoFCou.
 Initial guess orbital symmetries:
       Occupied  (A') (A') (A') (A') (A') (A") (A') (A') (A') (A')
                 (A") (A') (A")
       Virtual   (A') (A') (A') (A') (A') (A') (A") (A') (A") (A')
                 (A") (A') (A') (A") (A') (A') (A") (A') (A') (A")
                 (A') (A") (A') (A')
 The electronic state of the initial guess is 1-A'.
 Keep R1 ints in memory in symmetry-blocked form, NReq=7153137.
 Requested convergence on RMS density matrix=1.00D-08 within 128 cycles.
 Requested convergence on MAX density matrix=1.00D-06.
 Requested convergence on             energy=1.00D-06.
 No special actions if energy rises.
 Integral accuracy reduced to 1.0D-05 until final iterations.
 EnCoef did   100 forward-backward iterations
 Initial convergence to 1.0D-05 achieved.  Increase integral accuracy.
 SCF Done:  E(RB3LYP) =  -535.667263256     A.U. after   16 cycles
            NFock= 16  Conv=0.65D-08     -V/T= 2.0031
 DoSCS=F DFT=T ScalE2(SS,OS)=  1.000000  1.000000
 Range of M.O.s used for correlation:     1    37
 NBasis=    37 NAE=    13 NBE=    13 NFC=     0 NFV=     0
 NROrb=     37 NOA=    13 NOB=    13 NVA=    24 NVB=    24

 **** Warning!!: The smallest alpha delta epsilon is  0.80408272D-01

 Symmetrizing basis deriv contribution to polar:
 IMax=3 JMax=2 DiffMx= 0.00D+00
 G2DrvN: will do     4 centers at a time, making    1 passes.
 Calling FoFCou, ICntrl=  3107 FMM=F I1Cent=   0 AccDes= 0.00D+00.
 End of G2Drv F.D. properties file   721 does not exist.
 End of G2Drv F.D. properties file   722 does not exist.
 End of G2Drv F.D. properties file   788 does not exist.
          IDoAtm=111
          Differentiating once with respect to nuclear coordinates.
 Keep R1 ints in memory in symmetry-blocked form, NReq=7127949.
          There are    12 degrees of freedom in the 1st order CPHF.  IDoFFX=6 NUNeed=     0.
      6 vectors produced by pass  0 Test12= 2.60D-15 8.33D-09 XBig12= 1.02D-01 2.54D-01.
 AX will form     6 AO Fock derivatives at one time.
      6 vectors produced by pass  1 Test12= 2.60D-15 8.33D-09 XBig12= 4.23D-01 2.61D-01.
      6 vectors produced by pass  2 Test12= 2.60D-15 8.33D-09 XBig12= 2.17D-02 4.41D-02.
      6 vectors produced by pass  3 Test12= 2.60D-15 8.33D-09 XBig12= 2.14D-04 5.80D-03.
      6 vectors produced by pass  4 Test12= 2.60D-15 8.33D-09 XBig12= 1.86D-06 5.95D-04.
      6 vectors produced by pass  5 Test12= 2.60D-15 8.33D-09 XBig12= 3.59D-09 2.17D-05.
      3 vectors produced by pass  6 Test12= 2.60D-15 8.33D-09 XBig12= 2.77D-12 8.38D-07.
      1 vectors produced by pass  7 Test12= 2.60D-15 8.33D-09 XBig12= 1.21D-15 1.12D-08.
 InvSVY:  IOpt=1 It=  1 EMax= 2.22D-16
 Solved reduced A of dimension    40 with     6 vectors.
 End of Minotr F.D. properties file   721 does not exist.
 End of Minotr F.D. properties file   722 does not exist.
 End of Minotr F.D. properties file   788 does not exist.

 **********************************************************************

            Population analysis using the SCF density.

 **********************************************************************

 Orbital symmetries:
       Occupied  (A') (A') (A') (A') (A') (A") (A') (A') (A') (A')
                 (A") (A') (A")
       Virtual   (A') (A') (A') (A') (A') (A") (A') (A') (A") (A')
                 (A") (A') (A') (A") (A') (A') (A") (A') (A') (A")
                 (A') (A') (A") (A')
 The electronic state is 1-A'.
 Alpha  occ. eigenvalues -- -101.54523 -19.22388  -9.49322  -7.26674  -7.25075
 Alpha  occ. eigenvalues --   -7.25067  -0.98483  -0.80145  -0.47618  -0.36692
 Alpha  occ. eigenvalues --   -0.34557  -0.32778  -0.32280
 Alpha virt. eigenvalues --   -0.24240   0.05061   0.44402   0.56213   0.68629
 Alpha virt. eigenvalues --    0.74147   0.74235   0.76940   0.76943   0.81644
 Alpha virt. eigenvalues --    0.82977   0.83578   0.91726   0.92549   1.00972
 Alpha virt. eigenvalues --    1.18763   1.39767   1.44879   2.16030   2.57986
 Alpha virt. eigenvalues --    2.59618   2.91335   2.93501   3.63744
          Condensed to atoms (all electrons):
               1          2          3
     1  O    7.793536   0.100664   0.283573
     2  Cl   0.100664  16.913788   0.002051
     3  H    0.283573   0.002051   0.520102
 Mulliken charges:
               1
     1  O   -0.177772
     2  Cl  -0.016503
     3  H    0.194275
 Sum of Mulliken charges =  -0.00000
 Mulliken charges with hydrogens summed into heavy atoms:
               1
     1  O    0.016503
     2  Cl  -0.016503
 APT charges:
               1
     1  O   -0.421280
     2  Cl  -0.054736
     3  H    0.476016
 Sum of APT charges =  -0.00000
 APT charges with hydrogens summed into heavy atoms:
               1
     1  O    0.054736
     2  Cl  -0.054736
 Electronic spatial extent (au):  <R**2>=            183.3244
 Charge=             -0.0000 electrons
 Dipole moment (field-independent basis, Debye):
    X=             -1.6610    Y=              0.5285    Z=              0.0000  Tot=              1.7430
 Quadrupole moment (field-independent basis, Debye-Ang):
   XX=            -16.8551   YY=            -13.8009   ZZ=            -18.8586
   XY=             -3.3413   XZ=             -0.0000   YZ=              0.0000
 Traceless Quadrupole moment (field-independent basis, Debye-Ang):
   XX=             -0.3502   YY=              2.7040   ZZ=             -2.3537
   XY=             -3.3413   XZ=             -0.0000   YZ=              0.0000
 Octapole moment (field-independent basis, Debye-Ang**2):
  XXX=             -2.0584  YYY=              6.8582  ZZZ=             -0.0000  XYY=             -6.2511
  XXY=              4.4152  XXZ=             -0.0000  XZZ=             -0.2509  YZZ=              0.6996
  YYZ=             -0.0000  XYZ=             -0.0000
 Hexadecapole moment (field-independent basis, Debye-Ang**3):
 XXXX=            -17.2585 YYYY=           -143.1249 ZZZZ=            -16.9367 XXXY=             -0.2708
 XXXZ=             -0.0000 YYYX=             -9.5857 YYYZ=              0.0000 ZZZX=             -0.0000
 ZZZY=              0.0000 XXYY=            -26.5091 XXZZ=             -5.9670 YYZZ=            -33.1566
 XXYZ=              0.0000 YYXZ=             -0.0000 ZZXY=              0.7767
 N-N= 3.524191214283D+01 E-N=-1.343240668434D+03  KE= 5.340113480018D+02
 Symmetry A'   KE= 4.832598882884D+02
 Symmetry A"   KE= 5.075145971343D+01
  Exact polarizability:   0.000   0.000   0.000   0.000   0.000   0.000
 Approx polarizability:  13.824  -2.048 200.124  -0.000  -0.000   9.350
 Calling FoFJK, ICntrl=    100147 FMM=F ISym2X=1 I1Cent= 0 IOpClX= 0 NMat=1 NMatS=1 NMatT=0.
 ***** Axes restored to original set *****
 -------------------------------------------------------------------
 Center     Atomic                   Forces (Hartrees/Bohr)
 Number     Number              X              Y              Z
 -------------------------------------------------------------------
      1        8          -0.010451602   -0.001727879   -0.053277289
      2       17           0.027966863   -0.003412227    0.049356994
      3        1          -0.017515261    0.005140107    0.003920295
 -------------------------------------------------------------------
 Cartesian Forces:  Max     0.053277289 RMS     0.026934419
 FormGI is forming the generalized inverse of G from B-inverse, IUseBI=4.

 GradGradGradGradGradGradGradGradGradGradGradGradGradGradGradGradGradGrad
 Berny optimization.
 Internal  Forces:  Max     0.056693968 RMS     0.035708152
 Search for a saddle point.
 Step number   1 out of a maximum of  100
 All quantities printed in internal units (Hartrees-Bohrs-Radians)
 Swapping is turned off.
 Second derivative matrix not updated -- analytic derivatives used.
 The second derivative matrix:
                          R1        R2        A1
           R1          -0.02521
           R2          -0.00107   0.54391
           A1          -0.00796  -0.00141   0.05980
 ITU=  0
     Eigenvalues ---   -0.02595   0.06054   0.54392
 Eigenvectors required to have negative eigenvalues:
                          R1        A1        R2
   1                   -0.99572  -0.09245  -0.00210
 RFO step:  Lambda0=4.666292724D-02 Lambda=-3.50155573D-03.
 Linear search not attempted -- option 19 set.
 Maximum step size (   0.300) exceeded in Quadratic search.
    -- Step size scaled by   0.361
 Iteration  1 RMS(Cart)=  0.08293705 RMS(Int)=  0.05505053
 Iteration  2 RMS(Cart)=  0.04400720 RMS(Int)=  0.00003359
 Iteration  3 RMS(Cart)=  0.00004438 RMS(Int)=  0.00000000
 Iteration  4 RMS(Cart)=  0.00000000 RMS(Int)=  0.00000000
 ClnCor:  largest displacement from symmetrization is 3.19D-15 for atom     3.
 Variable       Old X    -DE/DX   Delta X   Delta X   Delta X     New X
                                 (Linear)    (Quad)   (Total)
    R1        4.88801  -0.05669   0.00000   0.29529   0.29529   5.18331
    R2        1.82441   0.01536   0.00000   0.01062   0.01062   1.83504
    A1        1.80550  -0.01937   0.00000  -0.05185  -0.05185   1.75365
         Item               Value     Threshold  Converged?
 Maximum Force            0.056694     0.000450     NO 
 RMS     Force            0.035708     0.000300     NO 
 Maximum Displacement     0.144815     0.001800     NO 
 RMS     Displacement     0.124320     0.001200     NO 
 Predicted change in Energy= 1.470532D-02
 GradGradGradGradGradGradGradGradGradGradGradGradGradGradGradGradGradGrad

                          Input orientation:                          
 ---------------------------------------------------------------------
 Center     Atomic      Atomic             Coordinates (Angstroms)
 Number     Number       Type             X           Y           Z
 ---------------------------------------------------------------------
      1          8           0        0.789314   -4.818422   -3.059456
      2         17           0       -0.714931   -4.602879   -5.342923
      3          1           0        0.128362   -4.579440   -2.389391
 ---------------------------------------------------------------------
                    Distance matrix (angstroms):
                    1          2          3
     1  O    0.000000
     2  Cl   2.742888   0.000000
     3  H    0.971060   3.071652   0.000000
 Stoichiometry    ClHO
 Framework group  CS[SG(ClHO)]
 Deg. of freedom     3
 Full point group                 CS      NOp   2
 Largest Abelian subgroup         CS      NOp   2
 Largest concise Abelian subgroup C1      NOp   1
                         Standard orientation:                         
 ---------------------------------------------------------------------
 Center     Atomic      Atomic             Coordinates (Angstroms)
 Number     Number       Type             X           Y           Z
 ---------------------------------------------------------------------
      1          8           0        0.036726    1.786635   -0.000000
      2         17           0        0.036726   -0.956253    0.000000
      3          1           0       -0.918145    1.963211    0.000000
 ---------------------------------------------------------------------
 Rotational constants (GHZ):         589.5974300           5.8222510           5.7653187
 Standard basis: SVP (5D, 7F)
 There are    29 symmetry adapted cartesian basis functions of A'  symmetry.
 There are    10 symmetry adapted cartesian basis functions of A"  symmetry.
 There are    27 symmetry adapted basis functions of A'  symmetry.
 There are    10 symmetry adapted basis functions of A"  symmetry.
    37 basis functions,    69 primitive gaussians,    39 cartesian basis functions
    13 alpha electrons       13 beta electrons
       nuclear repulsion energy        33.5263830469 Hartrees.
 NAtoms=    3 NActive=    3 NUniq=    3 SFac= 1.00D+00 NAtFMM=   60 NAOKFM=F Big=F
 Integral buffers will be    131072 words long.
 Raffenetti 2 integral format.
 Two-electron integral symmetry is turned on.
 Nuclear repulsion after empirical dispersion term =       33.5249442388 Hartrees.
 One-electron integrals computed using PRISM.
 NBasis=    37 RedAO= T EigKep=  5.47D-02  NBF=    27    10
 NBsUse=    37 1.00D-06 EigRej= -1.00D+00 NBFU=    27    10
 Initial guess from the checkpoint file:  "/tmp/Gau-11232.chk"
 B after Tr=     0.000000   -0.000000    0.000000
         Rot=    1.000000   -0.000000    0.000000    0.000258 Ang=   0.03 deg.
 Initial guess orbital symmetries:
       Occupied  (A') (A') (A') (A') (A') (A") (A') (A') (A') (A')
                 (A") (A') (A")
       Virtual   (A') (A') (A') (A') (A') (A") (A') (A') (A") (A')
                 (A") (A') (A') (A") (A') (A') (A") (A') (A') (A")
                 (A') (A') (A") (A')
 ExpMin= 1.22D-01 ExpMax= 1.04D+04 ExpMxC= 1.57D+03 IAcc=2 IRadAn=         4 AccDes= 0.00D+00
 Harris functional with IExCor=  402 and IRadAn=       4 diagonalized for initial guess.
 HarFok:  IExCor=  402 AccDes= 0.00D+00 IRadAn=         4 IDoV= 1 UseB2=F ITyADJ=14
 ICtDFT=  3500011 ScaDFX=  1.000000  1.000000  1.000000  1.000000
 FoFCou: FMM=F IPFlag=           0 FMFlag=      100000 FMFlg1=           0
         NFxFlg=           0 DoJE=T BraDBF=F KetDBF=T FulRan=T
         wScrn=  0.000000 ICntrl=       500 IOpCl=  0 I1Cent=   200000004 NGrid=           0
         NMat0=    1 NMatS0=      1 NMatT0=    0 NMatD0=    1 NMtDS0=    0 NMtDT0=    0
 Petite list used in FoFCou.
 Keep R1 ints in memory in symmetry-blocked form, NReq=7153137.
 Requested convergence on RMS density matrix=1.00D-08 within 128 cycles.
 Requested convergence on MAX density matrix=1.00D-06.
 Requested convergence on             energy=1.00D-06.
 No special actions if energy rises.
 Integral accuracy reduced to 1.0D-05 until final iterations.
 Initial convergence to 1.0D-05 achieved.  Increase integral accuracy.
 SCF Done:  E(RB3LYP) =  -535.652595481     A.U. after   16 cycles
            NFock= 16  Conv=0.16D-08     -V/T= 2.0031
 Calling FoFJK, ICntrl=      2127 FMM=F ISym2X=1 I1Cent= 0 IOpClX= 0 NMat=1 NMatS=1 NMatT=0.
 ***** Axes restored to original set *****
 -------------------------------------------------------------------
 Center     Atomic                   Forces (Hartrees/Bohr)
 Number     Number              X              Y              Z
 -------------------------------------------------------------------
      1        8          -0.012813464   -0.000265491   -0.043826142
      2       17           0.024889534   -0.003147333    0.042643538
      3        1          -0.012076069    0.003412824    0.001182604
 -------------------------------------------------------------------
 Cartesian Forces:  Max     0.043826142 RMS     0.022832067

 GradGradGradGradGradGradGradGradGradGradGradGradGradGradGradGradGradGrad
 Berny optimization.
 FormGI is forming the generalized inverse of G from B-inverse, IUseBI=4.
 Internal  Forces:  Max     0.049398202 RMS     0.030245217
 Search for a saddle point.
 Step number   2 out of a maximum of  100
 All quantities printed in internal units (Hartrees-Bohrs-Radians)
 Swapping is turned off.
 Update second derivatives using D2CorX and points    1    2
 The second derivative matrix:
                          R1        R2        A1
           R1          -0.02582
           R2          -0.00122   0.54389
           A1          -0.00657  -0.00127   0.05863
 ITU=  0  0
     Eigenvalues ---   -0.02633   0.05914   0.54390
 Eigenvectors required to have negative eigenvalues:
                          R1        A1        R2
   1                   -0.99702  -0.07717  -0.00231
 RFO step:  Lambda0=3.886584627D-02 Lambda=-1.98572009D-03.
 Linear search not attempted -- option 19 set.
 Maximum step size (   0.300) exceeded in Quadratic search.
    -- Step size scaled by   0.379
 Iteration  1 RMS(Cart)=  0.08308849 RMS(Int)=  0.05597018
 Iteration  2 RMS(Cart)=  0.04492997 RMS(Int)=  0.00002958
 Iteration  3 RMS(Cart)=  0.00004009 RMS(Int)=  0.00000000
 Iteration  4 RMS(Cart)=  0.00000000 RMS(Int)=  0.00000000
 ClnCor:  largest displacement from symmetrization is 2.55D-15 for atom     3.
 Variable       Old X    -DE/DX   Delta X   Delta X   Delta X     New X
                                 (Linear)    (Quad)   (Total)
    R1        5.18331  -0.04940   0.00000   0.29690   0.29690   5.48021
    R2        1.83504   0.00988   0.00000   0.00748   0.00748   1.84251
    A1        1.75365  -0.01437   0.00000  -0.04233  -0.04233   1.71132
         Item               Value     Threshold  Converged?
 Maximum Force            0.049398     0.000450     NO 
 RMS     Force            0.030245     0.000300     NO 
 Maximum Displacement     0.150729     0.001800     NO 
 RMS     Displacement     0.126187     0.001200     NO 
 Predicted change in Energy= 1.299432D-02
 GradGradGradGradGradGradGradGradGradGradGradGradGradGradGradGradGradGrad

                          Input orientation:                          
 ---------------------------------------------------------------------
 Center     Atomic      Atomic             Coordinates (Angstroms)
 Number     Number       Type             X           Y           Z
 ---------------------------------------------------------------------
      1          8           0        0.826948   -4.824047   -3.005023
      2         17           0       -0.758528   -4.597803   -5.422686
      3          1           0        0.134325   -4.578891   -2.364062
 ---------------------------------------------------------------------
                    Distance matrix (angstroms):
                    1          2          3
     1  O    0.000000
     2  Cl   2.900002   0.000000
     3  H    0.975017   3.186333   0.000000
 Stoichiometry    ClHO
 Framework group  CS[SG(ClHO)]
 Deg. of freedom     3
 Full point group                 CS      NOp   2
 Largest Abelian subgroup         CS      NOp   2
 Largest concise Abelian subgroup C1      NOp   1
                         Standard orientation:                         
 ---------------------------------------------------------------------
 Center     Atomic      Atomic             Coordinates (Angstroms)
 Number     Number       Type             X           Y           Z
 ---------------------------------------------------------------------
      1          8           0        0.037131    1.890903   -0.000000
      2         17           0        0.037131   -1.009099    0.000000
      3          1           0       -0.928275    2.027463   -0.000000
 ---------------------------------------------------------------------
 Rotational constants (GHZ):         575.4955391           5.2202729           5.1733459
 Standard basis: SVP (5D, 7F)
 There are    29 symmetry adapted cartesian basis functions of A'  symmetry.
 There are    10 symmetry adapted cartesian basis functions of A"  symmetry.
 There are    27 symmetry adapted basis functions of A'  symmetry.
 There are    10 symmetry adapted basis functions of A"  symmetry.
    37 basis functions,    69 primitive gaussians,    39 cartesian basis functions
    13 alpha electrons       13 beta electrons
       nuclear repulsion energy        31.9817693450 Hartrees.
 NAtoms=    3 NActive=    3 NUniq=    3 SFac= 1.00D+00 NAtFMM=   60 NAOKFM=F Big=F
 Integral buffers will be    131072 words long.
 Raffenetti 2 integral format.
 Two-electron integral symmetry is turned on.
 Nuclear repulsion after empirical dispersion term =       31.9804225679 Hartrees.
 One-electron integrals computed using PRISM.
 NBasis=    37 RedAO= T EigKep=  5.52D-02  NBF=    27    10
 NBsUse=    37 1.00D-06 EigRej= -1.00D+00 NBFU=    27    10
 Initial guess from the checkpoint file:  "/tmp/Gau-11232.chk"
 B after Tr=    -0.000000    0.000000   -0.000000
         Rot=    1.000000   -0.000000    0.000000    0.000421 Ang=   0.05 deg.
 Initial guess orbital symmetries:
       Occupied  (A') (A') (A') (A') (A') (A") (A') (A') (A') (A')
                 (A") (A') (A")
       Virtual   (A') (A') (A') (A') (A') (A") (A') (A") (A') (A')
                 (A") (A') (A') (A") (A') (A') (A") (A') (A') (A")
                 (A') (A') (A") (A')
 ExpMin= 1.22D-01 ExpMax= 1.04D+04 ExpMxC= 1.57D+03 IAcc=2 IRadAn=         4 AccDes= 0.00D+00
 Harris functional with IExCor=  402 and IRadAn=       4 diagonalized for initial guess.
 HarFok:  IExCor=  402 AccDes= 0.00D+00 IRadAn=         4 IDoV= 1 UseB2=F ITyADJ=14
 ICtDFT=  3500011 ScaDFX=  1.000000  1.000000  1.000000  1.000000
 FoFCou: FMM=F IPFlag=           0 FMFlag=      100000 FMFlg1=           0
         NFxFlg=           0 DoJE=T BraDBF=F KetDBF=T FulRan=T
         wScrn=  0.000000 ICntrl=       500 IOpCl=  0 I1Cent=   200000004 NGrid=           0
         NMat0=    1 NMatS0=      1 NMatT0=    0 NMatD0=    1 NMtDS0=    0 NMtDT0=    0
 Petite list used in FoFCou.
 Keep R1 ints in memory in symmetry-blocked form, NReq=7153137.
 Requested convergence on RMS density matrix=1.00D-08 within 128 cycles.
 Requested convergence on MAX density matrix=1.00D-06.
 Requested convergence on             energy=1.00D-06.
 No special actions if energy rises.
 Integral accuracy reduced to 1.0D-05 until final iterations.
 Initial convergence to 1.0D-05 achieved.  Increase integral accuracy.
 SCF Done:  E(RB3LYP) =  -535.639615184     A.U. after   16 cycles
            NFock= 16  Conv=0.10D-08     -V/T= 2.0030
 Calling FoFJK, ICntrl=      2127 FMM=F ISym2X=1 I1Cent= 0 IOpClX= 0 NMat=1 NMatS=1 NMatT=0.
 ***** Axes restored to original set *****
 -------------------------------------------------------------------
 Center     Atomic                   Forces (Hartrees/Bohr)
 Number     Number              X              Y              Z
 -------------------------------------------------------------------
      1        8          -0.013335359    0.000566620   -0.035834327
      2       17           0.021453946   -0.002767391    0.036125224
      3        1          -0.008118587    0.002200772   -0.000290897
 -------------------------------------------------------------------
 Cartesian Forces:  Max     0.036125224 RMS     0.019166097

 GradGradGradGradGradGradGradGradGradGradGradGradGradGradGradGradGradGrad
 Berny optimization.
 FormGI is forming the generalized inverse of G from B-inverse, IUseBI=4.
 Internal  Forces:  Max     0.042061947 RMS     0.025296509
 Search for a saddle point.
 Step number   3 out of a maximum of  100
 All quantities printed in internal units (Hartrees-Bohrs-Radians)
 Swapping is turned off.
 Update second derivatives using D2CorX and points    1    2    3
 The second derivative matrix:
                          R1        R2        A1
           R1          -0.02530
           R2          -0.00125   0.54389
           A1          -0.00435  -0.00120   0.05778
 ITU=  0  0  0
     Eigenvalues ---   -0.02553   0.05800   0.54390
 Eigenvectors required to have negative eigenvalues:
                          R1        A1        R2
   1                   -0.99864  -0.05214  -0.00230
 RFO step:  Lambda0=3.165435922D-02 Lambda=-1.26389219D-03.
 Linear search not attempted -- option 19 set.
 Maximum step size (   0.300) exceeded in Quadratic search.
    -- Step size scaled by   0.396
 Iteration  1 RMS(Cart)=  0.08290668 RMS(Int)=  0.05612514
 Iteration  2 RMS(Cart)=  0.04514394 RMS(Int)=  0.00002621
 Iteration  3 RMS(Cart)=  0.00003619 RMS(Int)=  0.00000000
 Iteration  4 RMS(Cart)=  0.00000000 RMS(Int)=  0.00000000
 ClnCor:  largest displacement from symmetrization is 4.08D-15 for atom     1.
 Variable       Old X    -DE/DX   Delta X   Delta X   Delta X     New X
                                 (Linear)    (Quad)   (Total)
    R1        5.48021  -0.04206   0.00000   0.29718   0.29718   5.77739
    R2        1.84251   0.00613   0.00000   0.00509   0.00509   1.84760
    A1        1.71132  -0.01063   0.00000  -0.04074  -0.04074   1.67057
         Item               Value     Threshold  Converged?
 Maximum Force            0.042062     0.000450     NO 
 RMS     Force            0.025297     0.000300     NO 
 Maximum Displacement     0.151275     0.001800     NO 
 RMS     Displacement     0.126273     0.001200     NO 
 Predicted change in Energy= 1.102456D-02
 GradGradGradGradGradGradGradGradGradGradGradGradGradGradGradGradGradGrad

                          Input orientation:                          
 ---------------------------------------------------------------------
 Center     Atomic      Atomic             Coordinates (Angstroms)
 Number     Number       Type             X           Y           Z
 ---------------------------------------------------------------------
      1          8           0        0.863171   -4.829212   -2.949738
      2         17           0       -0.802102   -4.592758   -5.502737
      3          1           0        0.141676   -4.578771   -2.339296
 ---------------------------------------------------------------------
                    Distance matrix (angstroms):
                    1          2          3
     1  O    0.000000
     2  Cl   3.057262   0.000000
     3  H    0.977708   3.301253   0.000000
 Stoichiometry    ClHO
 Framework group  CS[SG(ClHO)]
 Deg. of freedom     3
 Full point group                 CS      NOp   2
 Largest Abelian subgroup         CS      NOp   2
 Largest concise Abelian subgroup C1      NOp   1
                         Standard orientation:                         
 ---------------------------------------------------------------------
 Center     Atomic      Atomic             Coordinates (Angstroms)
 Number     Number       Type             X           Y           Z
 ---------------------------------------------------------------------
      1          8           0        0.037417    1.995233   -0.000000
      2         17           0        0.037417   -1.062029    0.000000
      3          1           0       -0.935428    2.092625   -0.000000
 ---------------------------------------------------------------------
 Rotational constants (GHZ):         565.6212778           4.7062335           4.6673986
 Standard basis: SVP (5D, 7F)
 There are    29 symmetry adapted cartesian basis functions of A'  symmetry.
 There are    10 symmetry adapted cartesian basis functions of A"  symmetry.
 There are    27 symmetry adapted basis functions of A'  symmetry.
 There are    10 symmetry adapted basis functions of A"  symmetry.
    37 basis functions,    69 primitive gaussians,    39 cartesian basis functions
    13 alpha electrons       13 beta electrons
       nuclear repulsion energy        30.5950220441 Hartrees.
 NAtoms=    3 NActive=    3 NUniq=    3 SFac= 1.00D+00 NAtFMM=   60 NAOKFM=F Big=F
 Integral buffers will be    131072 words long.
 Raffenetti 2 integral format.
 Two-electron integral symmetry is turned on.
 Nuclear repulsion after empirical dispersion term =       30.5937787419 Hartrees.
 One-electron integrals computed using PRISM.
 NBasis=    37 RedAO= T EigKep=  5.55D-02  NBF=    27    10
 NBsUse=    37 1.00D-06 EigRej= -1.00D+00 NBFU=    27    10
 Initial guess from the checkpoint file:  "/tmp/Gau-11232.chk"
 B after Tr=    -0.000000    0.000000   -0.000000
         Rot=    1.000000    0.000000   -0.000000    0.000447 Ang=   0.05 deg.
 Initial guess orbital symmetries:
       Occupied  (A') (A') (A') (A') (A') (A") (A') (A') (A') (A')
                 (A") (A') (A")
       Virtual   (A') (A') (A') (A') (A') (A") (A') (A") (A') (A')
                 (A') (A") (A') (A") (A') (A') (A") (A') (A') (A")
                 (A') (A') (A") (A')
 ExpMin= 1.22D-01 ExpMax= 1.04D+04 ExpMxC= 1.57D+03 IAcc=2 IRadAn=         4 AccDes= 0.00D+00
 Harris functional with IExCor=  402 and IRadAn=       4 diagonalized for initial guess.
 HarFok:  IExCor=  402 AccDes= 0.00D+00 IRadAn=         4 IDoV= 1 UseB2=F ITyADJ=14
 ICtDFT=  3500011 ScaDFX=  1.000000  1.000000  1.000000  1.000000
 FoFCou: FMM=F IPFlag=           0 FMFlag=      100000 FMFlg1=           0
         NFxFlg=           0 DoJE=T BraDBF=F KetDBF=T FulRan=T
         wScrn=  0.000000 ICntrl=       500 IOpCl=  0 I1Cent=   200000004 NGrid=           0
         NMat0=    1 NMatS0=      1 NMatT0=    0 NMatD0=    1 NMtDS0=    0 NMtDT0=    0
 Petite list used in FoFCou.
 Keep R1 ints in memory in symmetry-blocked form, NReq=7153137.
 Requested convergence on RMS density matrix=1.00D-08 within 128 cycles.
 Requested convergence on MAX density matrix=1.00D-06.
 Requested convergence on             energy=1.00D-06.
 No special actions if energy rises.
 Integral accuracy reduced to 1.0D-05 until final iterations.
 Initial convergence to 1.0D-05 achieved.  Increase integral accuracy.
 SCF Done:  E(RB3LYP) =  -535.628523517     A.U. after   16 cycles
            NFock= 16  Conv=0.37D-08     -V/T= 2.0029
 Calling FoFJK, ICntrl=      2127 FMM=F ISym2X=1 I1Cent= 0 IOpClX= 0 NMat=1 NMatS=1 NMatT=0.
 ***** Axes restored to original set *****
 -------------------------------------------------------------------
 Center     Atomic                   Forces (Hartrees/Bohr)
 Number     Number              X              Y              Z
 -------------------------------------------------------------------
      1        8          -0.012985973    0.001032017   -0.029325256
      2       17           0.018220121   -0.002386761    0.030256504
      3        1          -0.005234148    0.001354744   -0.000931249
 -------------------------------------------------------------------
 Cartesian Forces:  Max     0.030256504 RMS     0.016030857

 GradGradGradGradGradGradGradGradGradGradGradGradGradGradGradGradGradGrad
 Berny optimization.
 FormGI is forming the generalized inverse of G from B-inverse, IUseBI=4.
 Internal  Forces:  Max     0.035375122 RMS     0.020995116
 Search for a saddle point.
 Step number   4 out of a maximum of  100
 All quantities printed in internal units (Hartrees-Bohrs-Radians)
 Swapping is turned off.
 Update second derivatives using D2CorX and points    2    3    4
 The second derivative matrix:
                          R1        R2        A1
           R1          -0.02278
           R2          -0.00104   0.54390
           A1          -0.00217  -0.00110   0.05830
 ITU=  0  0  0  0
     Eigenvalues ---   -0.02284   0.05836   0.54391
 Eigenvectors required to have negative eigenvalues:
                          R1        A1        R2
   1                    0.99964   0.02670   0.00189
 RFO step:  Lambda0=2.592745375D-02 Lambda=-7.72852806D-04.
 Linear search not attempted -- option 19 set.
 Maximum step size (   0.300) exceeded in Quadratic search.
    -- Step size scaled by   0.407
 Iteration  1 RMS(Cart)=  0.08304111 RMS(Int)=  0.05636116
 Iteration  2 RMS(Cart)=  0.04542227 RMS(Int)=  0.00002318
 Iteration  3 RMS(Cart)=  0.00003252 RMS(Int)=  0.00000000
 Iteration  4 RMS(Cart)=  0.00000000 RMS(Int)=  0.00000000
 ClnCor:  largest displacement from symmetrization is 3.98D-15 for atom     1.
 Variable       Old X    -DE/DX   Delta X   Delta X   Delta X     New X
                                 (Linear)    (Quad)   (Total)
    R1        5.77739  -0.03538   0.00000   0.29759   0.29759   6.07498
    R2        1.84760   0.00363   0.00000   0.00323   0.00323   1.85083
    A1        1.67057  -0.00760   0.00000  -0.03779  -0.03779   1.63278
         Item               Value     Threshold  Converged?
 Maximum Force            0.035375     0.000450     NO 
 RMS     Force            0.020995     0.000300     NO 
 Maximum Displacement     0.153031     0.001800     NO 
 RMS     Displacement     0.126882     0.001200     NO 
 Predicted change in Energy= 9.287497D-03
 GradGradGradGradGradGradGradGradGradGradGradGradGradGradGradGradGradGrad

                          Input orientation:                          
 ---------------------------------------------------------------------
 Center     Atomic      Atomic             Coordinates (Angstroms)
 Number     Number       Type             X           Y           Z
 ---------------------------------------------------------------------
      1          8           0        0.897710   -4.833878   -2.894023
      2         17           0       -0.845718   -4.587782   -5.583718
      3          1           0        0.150753   -4.579082   -2.314030
 ---------------------------------------------------------------------
                    Distance matrix (angstroms):
                    1          2          3
     1  O    0.000000
     2  Cl   3.214741   0.000000
     3  H    0.979417   3.418170   0.000000
 Stoichiometry    ClHO
 Framework group  CS[SG(ClHO)]
 Deg. of freedom     3
 Full point group                 CS      NOp   2
 Largest Abelian subgroup         CS      NOp   2
 Largest concise Abelian subgroup C1      NOp   1
                         Standard orientation:                         
 ---------------------------------------------------------------------
 Center     Atomic      Atomic             Coordinates (Angstroms)
 Number     Number       Type             X           Y           Z
 ---------------------------------------------------------------------
      1          8           0        0.037598    2.099612    0.000000
      2         17           0        0.037598   -1.115128    0.000000
      3          1           0       -0.939939    2.160282   -0.000000
 ---------------------------------------------------------------------
 Rotational constants (GHZ):         559.2893014           4.2634163           4.2311625
 Standard basis: SVP (5D, 7F)
 There are    29 symmetry adapted cartesian basis functions of A'  symmetry.
 There are    10 symmetry adapted cartesian basis functions of A"  symmetry.
 There are    27 symmetry adapted basis functions of A'  symmetry.
 There are    10 symmetry adapted basis functions of A"  symmetry.
    37 basis functions,    69 primitive gaussians,    39 cartesian basis functions
    13 alpha electrons       13 beta electrons
       nuclear repulsion energy        29.3411120867 Hartrees.
 NAtoms=    3 NActive=    3 NUniq=    3 SFac= 1.00D+00 NAtFMM=   60 NAOKFM=F Big=F
 Integral buffers will be    131072 words long.
 Raffenetti 2 integral format.
 Two-electron integral symmetry is turned on.
 Nuclear repulsion after empirical dispersion term =       29.3399803026 Hartrees.
 One-electron integrals computed using PRISM.
 NBasis=    37 RedAO= T EigKep=  5.57D-02  NBF=    27    10
 NBsUse=    37 1.00D-06 EigRej= -1.00D+00 NBFU=    27    10
 Initial guess from the checkpoint file:  "/tmp/Gau-11232.chk"
 B after Tr=     0.000000   -0.000000   -0.000000
         Rot=    1.000000    0.000000   -0.000000    0.000474 Ang=   0.05 deg.
 Initial guess orbital symmetries:
       Occupied  (A') (A') (A') (A') (A') (A") (A') (A') (A') (A')
                 (A") (A') (A")
       Virtual   (A') (A') (A') (A') (A') (A") (A') (A") (A') (A')
                 (A') (A") (A') (A") (A') (A') (A") (A') (A') (A")
                 (A') (A') (A") (A')
 ExpMin= 1.22D-01 ExpMax= 1.04D+04 ExpMxC= 1.57D+03 IAcc=2 IRadAn=         4 AccDes= 0.00D+00
 Harris functional with IExCor=  402 and IRadAn=       4 diagonalized for initial guess.
 HarFok:  IExCor=  402 AccDes= 0.00D+00 IRadAn=         4 IDoV= 1 UseB2=F ITyADJ=14
 ICtDFT=  3500011 ScaDFX=  1.000000  1.000000  1.000000  1.000000
 FoFCou: FMM=F IPFlag=           0 FMFlag=      100000 FMFlg1=           0
         NFxFlg=           0 DoJE=T BraDBF=F KetDBF=T FulRan=T
         wScrn=  0.000000 ICntrl=       500 IOpCl=  0 I1Cent=   200000004 NGrid=           0
         NMat0=    1 NMatS0=      1 NMatT0=    0 NMatD0=    1 NMtDS0=    0 NMtDT0=    0
 Petite list used in FoFCou.
 Keep R1 ints in memory in symmetry-blocked form, NReq=7153137.
 Requested convergence on RMS density matrix=1.00D-08 within 128 cycles.
 Requested convergence on MAX density matrix=1.00D-06.
 Requested convergence on             energy=1.00D-06.
 No special actions if energy rises.
 Integral accuracy reduced to 1.0D-05 until final iterations.
 Initial convergence to 1.0D-05 achieved.  Increase integral accuracy.
 SCF Done:  E(RB3LYP) =  -535.619137841     A.U. after   17 cycles
            NFock= 17  Conv=0.86D-08     -V/T= 2.0029
 Calling FoFJK, ICntrl=      2127 FMM=F ISym2X=1 I1Cent= 0 IOpClX= 0 NMat=1 NMatS=1 NMatT=0.
 ***** Axes restored to original set *****
 -------------------------------------------------------------------
 Center     Atomic                   Forces (Hartrees/Bohr)
 Number     Number              X              Y              Z
 -------------------------------------------------------------------
      1        8          -0.012075884    0.001231701   -0.024115095
      2       17           0.015324676   -0.002030242    0.025184166
      3        1          -0.003248792    0.000798542   -0.001069071
 -------------------------------------------------------------------
 Cartesian Forces:  Max     0.025184166 RMS     0.013393311

 GradGradGradGradGradGradGradGradGradGradGradGradGradGradGradGradGradGrad
 Berny optimization.
 FormGI is forming the generalized inverse of G from B-inverse, IUseBI=4.
 Internal  Forces:  Max     0.029537545 RMS     0.017363928
 Search for a saddle point.
 Step number   5 out of a maximum of  100
 All quantities printed in internal units (Hartrees-Bohrs-Radians)
 Swapping is turned off.
 Update second derivatives using D2CorX and points    3    4    5
 The second derivative matrix:
                          R1        R2        A1
           R1          -0.01965
           R2          -0.00074   0.54393
           A1          -0.00034  -0.00099   0.05881
 ITU=  0  0  0  0
     Eigenvalues ---   -0.01965   0.05881   0.54393
 Eigenvectors required to have negative eigenvalues:
                          R1        A1        R2
   1                   -0.99999  -0.00439  -0.00131
 RFO step:  Lambda0=2.132143935D-02 Lambda=-4.54281849D-04.
 Linear search not attempted -- option 19 set.
 Maximum step size (   0.300) exceeded in Quadratic search.
    -- Step size scaled by   0.413
 Iteration  1 RMS(Cart)=  0.08338892 RMS(Int)=  0.05659370
 Iteration  2 RMS(Cart)=  0.04568612 RMS(Int)=  0.00002047
 Iteration  3 RMS(Cart)=  0.00002910 RMS(Int)=  0.00000000
 Iteration  4 RMS(Cart)=  0.00000000 RMS(Int)=  0.00000000
 ClnCor:  largest displacement from symmetrization is 2.04D-15 for atom     1.
 Variable       Old X    -DE/DX   Delta X   Delta X   Delta X     New X
                                 (Linear)    (Quad)   (Total)
    R1        6.07498  -0.02954   0.00000   0.29800   0.29800   6.37298
    R2        1.85083   0.00205   0.00000   0.00191   0.00191   1.85274
    A1        1.63278  -0.00528   0.00000  -0.03452  -0.03452   1.59826
         Item               Value     Threshold  Converged?
 Maximum Force            0.029538     0.000450     NO 
 RMS     Force            0.017364     0.000300     NO 
 Maximum Displacement     0.155201     0.001800     NO 
 RMS     Displacement     0.127727     0.001200     NO 
 Predicted change in Energy= 7.782786D-03
 GradGradGradGradGradGradGradGradGradGradGradGradGradGradGradGradGradGrad

                          Input orientation:                          
 ---------------------------------------------------------------------
 Center     Atomic      Atomic             Coordinates (Angstroms)
 Number     Number       Type             X           Y           Z
 ---------------------------------------------------------------------
      1          8           0        0.930628   -4.838089   -2.838190
      2         17           0       -0.889414   -4.582883   -5.665847
      3          1           0        0.161531   -4.579769   -2.287734
 ---------------------------------------------------------------------
                    Distance matrix (angstroms):
                    1          2          3
     1  O    0.000000
     2  Cl   3.372436   0.000000
     3  H    0.980429   3.537816   0.000000
 Stoichiometry    ClHO
 Framework group  CS[SG(ClHO)]
 Deg. of freedom     3
 Full point group                 CS      NOp   2
 Largest Abelian subgroup         CS      NOp   2
 Largest concise Abelian subgroup C1      NOp   1
                         Standard orientation:                         
 ---------------------------------------------------------------------
 Center     Atomic      Atomic             Coordinates (Angstroms)
 Number     Number       Type             X           Y           Z
 ---------------------------------------------------------------------
      1          8           0        0.037695    2.204019   -0.000000
      2         17           0        0.037695   -1.168417    0.000000
      3          1           0       -0.942365    2.230939   -0.000000
 ---------------------------------------------------------------------
 Rotational constants (GHZ):         555.6607994           3.8792679           3.8523731
 Standard basis: SVP (5D, 7F)
 There are    29 symmetry adapted cartesian basis functions of A'  symmetry.
 There are    10 symmetry adapted cartesian basis functions of A"  symmetry.
 There are    27 symmetry adapted basis functions of A'  symmetry.
 There are    10 symmetry adapted basis functions of A"  symmetry.
    37 basis functions,    69 primitive gaussians,    39 cartesian basis functions
    13 alpha electrons       13 beta electrons
       nuclear repulsion energy        28.2008313961 Hartrees.
 NAtoms=    3 NActive=    3 NUniq=    3 SFac= 1.00D+00 NAtFMM=   60 NAOKFM=F Big=F
 Integral buffers will be    131072 words long.
 Raffenetti 2 integral format.
 Two-electron integral symmetry is turned on.
 Nuclear repulsion after empirical dispersion term =       28.1998141432 Hartrees.
 One-electron integrals computed using PRISM.
 NBasis=    37 RedAO= T EigKep=  5.57D-02  NBF=    27    10
 NBsUse=    37 1.00D-06 EigRej= -1.00D+00 NBFU=    27    10
 Initial guess from the checkpoint file:  "/tmp/Gau-11232.chk"
 B after Tr=    -0.000000    0.000000   -0.000000
         Rot=    1.000000    0.000000   -0.000000    0.000490 Ang=   0.06 deg.
 Initial guess orbital symmetries:
       Occupied  (A') (A') (A') (A') (A') (A") (A') (A') (A') (A")
                 (A') (A') (A")
       Virtual   (A') (A') (A') (A') (A') (A") (A') (A') (A") (A')
                 (A') (A") (A') (A") (A') (A') (A') (A") (A') (A")
                 (A') (A') (A") (A')
 ExpMin= 1.22D-01 ExpMax= 1.04D+04 ExpMxC= 1.57D+03 IAcc=2 IRadAn=         4 AccDes= 0.00D+00
 Harris functional with IExCor=  402 and IRadAn=       4 diagonalized for initial guess.
 HarFok:  IExCor=  402 AccDes= 0.00D+00 IRadAn=         4 IDoV= 1 UseB2=F ITyADJ=14
 ICtDFT=  3500011 ScaDFX=  1.000000  1.000000  1.000000  1.000000
 FoFCou: FMM=F IPFlag=           0 FMFlag=      100000 FMFlg1=           0
         NFxFlg=           0 DoJE=T BraDBF=F KetDBF=T FulRan=T
         wScrn=  0.000000 ICntrl=       500 IOpCl=  0 I1Cent=   200000004 NGrid=           0
         NMat0=    1 NMatS0=      1 NMatT0=    0 NMatD0=    1 NMtDS0=    0 NMtDT0=    0
 Petite list used in FoFCou.
 Keep R1 ints in memory in symmetry-blocked form, NReq=7153137.
 Requested convergence on RMS density matrix=1.00D-08 within 128 cycles.
 Requested convergence on MAX density matrix=1.00D-06.
 Requested convergence on             energy=1.00D-06.
 No special actions if energy rises.
 Integral accuracy reduced to 1.0D-05 until final iterations.
 Initial convergence to 1.0D-05 achieved.  Increase integral accuracy.
 SCF Done:  E(RB3LYP) =  -535.611256569     A.U. after   17 cycles
            NFock= 17  Conv=0.68D-08     -V/T= 2.0028
 Calling FoFJK, ICntrl=      2127 FMM=F ISym2X=1 I1Cent= 0 IOpClX= 0 NMat=1 NMatS=1 NMatT=0.
 ***** Axes restored to original set *****
 -------------------------------------------------------------------
 Center     Atomic                   Forces (Hartrees/Bohr)
 Number     Number              X              Y              Z
 -------------------------------------------------------------------
      1        8          -0.010833705    0.001253853   -0.019908033
      2       17           0.012783966   -0.001706732    0.020857030
      3        1          -0.001950261    0.000452879   -0.000948996
 -------------------------------------------------------------------
 Cartesian Forces:  Max     0.020857030 RMS     0.011163127

 GradGradGradGradGradGradGradGradGradGradGradGradGradGradGradGradGradGrad
 Berny optimization.
 FormGI is forming the generalized inverse of G from B-inverse, IUseBI=4.
 Internal  Forces:  Max     0.024516590 RMS     0.014316603
 Search for a saddle point.
 Step number   6 out of a maximum of  100
 All quantities printed in internal units (Hartrees-Bohrs-Radians)
 Swapping is turned off.
 Second derivative matrix not updated -- analytic derivatives used.
 The second derivative matrix:
                          R1        R2        A1
           R1          -0.01965
           R2          -0.00074   0.54393
           A1          -0.00034  -0.00099   0.05881
 ITU=  0  0  0  0
     Eigenvalues ---   -0.01965   0.05881   0.54393
 Eigenvectors required to have negative eigenvalues:
                          R1        A1        R2
   1                   -0.99999  -0.00439  -0.00131
 RFO step:  Lambda0=1.659856873D-02 Lambda=-2.02675678D-04.
 Linear search not attempted -- option 19 set.
 Maximum step size (   0.300) exceeded in Quadratic search.
    -- Step size scaled by   0.442
 Iteration  1 RMS(Cart)=  0.08538266 RMS(Int)=  0.05716611
 Iteration  2 RMS(Cart)=  0.04623186 RMS(Int)=  0.00001782
 Iteration  3 RMS(Cart)=  0.00002559 RMS(Int)=  0.00000000
 Iteration  4 RMS(Cart)=  0.00000000 RMS(Int)=  0.00000000
 ClnCor:  largest displacement from symmetrization is 6.22D-15 for atom     3.
 Variable       Old X    -DE/DX   Delta X   Delta X   Delta X     New X
                                 (Linear)    (Quad)   (Total)
    R1        6.37298  -0.02452   0.00000   0.29900   0.29900   6.67198
    R2        1.85274   0.00112   0.00000   0.00128   0.00128   1.85402
    A1        1.59826  -0.00355   0.00000  -0.02442  -0.02442   1.57384
         Item               Value     Threshold  Converged?
 Maximum Force            0.024517     0.000450     NO 
 RMS     Force            0.014317     0.000300     NO 
 Maximum Displacement     0.162378     0.001800     NO 
 RMS     Displacement     0.130955     0.001200     NO 
 Predicted change in Energy= 6.384236D-03
 GradGradGradGradGradGradGradGradGradGradGradGradGradGradGradGradGradGrad

                          Input orientation:                          
 ---------------------------------------------------------------------
 Center     Atomic      Atomic             Coordinates (Angstroms)
 Number     Number       Type             X           Y           Z
 ---------------------------------------------------------------------
      1          8           0        0.960593   -4.841617   -2.783817
      2         17           0       -0.933456   -4.578216   -5.751774
      3          1           0        0.175609   -4.580909   -2.256180
 ---------------------------------------------------------------------
                    Distance matrix (angstroms):
                    1          2          3
     1  O    0.000000
     2  Cl   3.530661   0.000000
     3  H    0.981106   3.667316   0.000000
 Stoichiometry    ClHO
 Framework group  CS[SG(ClHO)]
 Deg. of freedom     3
 Full point group                 CS      NOp   2
 Largest Abelian subgroup         CS      NOp   2
 Largest concise Abelian subgroup C1      NOp   1
                         Standard orientation:                         
 ---------------------------------------------------------------------
 Center     Atomic      Atomic             Coordinates (Angstroms)
 Number     Number       Type             X           Y           Z
 ---------------------------------------------------------------------
      1          8           0        0.037735    2.308394   -0.000000
      2         17           0        0.037735   -1.222267    0.000000
      3          1           0       -0.943367    2.311378   -0.000000
 ---------------------------------------------------------------------
 Rotational constants (GHZ):         553.9920115           3.5424892           3.5199808
 Standard basis: SVP (5D, 7F)
 There are    29 symmetry adapted cartesian basis functions of A'  symmetry.
 There are    10 symmetry adapted cartesian basis functions of A"  symmetry.
 There are    27 symmetry adapted basis functions of A'  symmetry.
 There are    10 symmetry adapted basis functions of A"  symmetry.
    37 basis functions,    69 primitive gaussians,    39 cartesian basis functions
    13 alpha electrons       13 beta electrons
       nuclear repulsion energy        27.1517149703 Hartrees.
 NAtoms=    3 NActive=    3 NUniq=    3 SFac= 1.00D+00 NAtFMM=   60 NAOKFM=F Big=F
 Integral buffers will be    131072 words long.
 Raffenetti 2 integral format.
 Two-electron integral symmetry is turned on.
 Nuclear repulsion after empirical dispersion term =       27.1508115258 Hartrees.
 One-electron integrals computed using PRISM.
 NBasis=    37 RedAO= T EigKep=  5.58D-02  NBF=    27    10
 NBsUse=    37 1.00D-06 EigRej= -1.00D+00 NBFU=    27    10
 Initial guess from the checkpoint file:  "/tmp/Gau-11232.chk"
 B after Tr=     0.000000   -0.000000    0.000000
         Rot=    1.000000   -0.000000    0.000000    0.000538 Ang=   0.06 deg.
 Initial guess orbital symmetries:
       Occupied  (A') (A') (A') (A') (A') (A") (A') (A') (A') (A")
                 (A') (A') (A")
       Virtual   (A') (A') (A') (A') (A') (A") (A') (A') (A") (A')
                 (A') (A") (A') (A") (A') (A') (A') (A") (A') (A")
                 (A') (A') (A") (A')
 ExpMin= 1.22D-01 ExpMax= 1.04D+04 ExpMxC= 1.57D+03 IAcc=2 IRadAn=         4 AccDes= 0.00D+00
 Harris functional with IExCor=  402 and IRadAn=       4 diagonalized for initial guess.
 HarFok:  IExCor=  402 AccDes= 0.00D+00 IRadAn=         4 IDoV= 1 UseB2=F ITyADJ=14
 ICtDFT=  3500011 ScaDFX=  1.000000  1.000000  1.000000  1.000000
 FoFCou: FMM=F IPFlag=           0 FMFlag=      100000 FMFlg1=           0
         NFxFlg=           0 DoJE=T BraDBF=F KetDBF=T FulRan=T
         wScrn=  0.000000 ICntrl=       500 IOpCl=  0 I1Cent=   200000004 NGrid=           0
         NMat0=    1 NMatS0=      1 NMatT0=    0 NMatD0=    1 NMtDS0=    0 NMtDT0=    0
 Petite list used in FoFCou.
 Keep R1 ints in memory in symmetry-blocked form, NReq=7153137.
 Requested convergence on RMS density matrix=1.00D-08 within 128 cycles.
 Requested convergence on MAX density matrix=1.00D-06.
 Requested convergence on             energy=1.00D-06.
 No special actions if energy rises.
 Integral accuracy reduced to 1.0D-05 until final iterations.
 Initial convergence to 1.0D-05 achieved.  Increase integral accuracy.
 EnCoef did     3 forward-backward iterations
 SCF Done:  E(RB3LYP) =  -535.604666347     A.U. after   19 cycles
            NFock= 19  Conv=0.64D-08     -V/T= 2.0028
 Calling FoFJK, ICntrl=      2127 FMM=F ISym2X=1 I1Cent= 0 IOpClX= 0 NMat=1 NMatS=1 NMatT=0.
 ***** Axes restored to original set *****
 -------------------------------------------------------------------
 Center     Atomic                   Forces (Hartrees/Bohr)
 Number     Number              X              Y              Z
 -------------------------------------------------------------------
      1        8          -0.009447811    0.001184013   -0.016310955
      2       17           0.010527472   -0.001407938    0.017147015
      3        1          -0.001079660    0.000223926   -0.000836060
 -------------------------------------------------------------------
 Cartesian Forces:  Max     0.017147015 RMS     0.009222287

 GradGradGradGradGradGradGradGradGradGradGradGradGradGradGradGradGradGrad
 Berny optimization.
 FormGI is forming the generalized inverse of G from B-inverse, IUseBI=4.
 Internal  Forces:  Max     0.020166997 RMS     0.011729562
 Search for a saddle point.
 Step number   7 out of a maximum of  100
 All quantities printed in internal units (Hartrees-Bohrs-Radians)
 Swapping is turned off.
 Update second derivatives using D2CorX and points    5    6    7
 The second derivative matrix:
                          R1        R2        A1
           R1          -0.01446
           R2          -0.00025   0.54397
           A1           0.00104  -0.00089   0.05915
 ITU=  0  0  0  0
     Eigenvalues ---   -0.01448   0.05917   0.54397
 Eigenvectors required to have negative eigenvalues:
                          R1        A1        R2
   1                   -0.99990   0.01406  -0.00042
 RFO step:  Lambda0=1.415453270D-02 Lambda=-1.22841620D-04.
 Linear search not attempted -- option 19 set.
 Maximum step size (   0.300) exceeded in Quadratic search.
    -- Step size scaled by   0.426
 Iteration  1 RMS(Cart)=  0.08556608 RMS(Int)=  0.05720628
 Iteration  2 RMS(Cart)=  0.04630684 RMS(Int)=  0.00001579
 Iteration  3 RMS(Cart)=  0.00002287 RMS(Int)=  0.00000000
 Iteration  4 RMS(Cart)=  0.00000000 RMS(Int)=  0.00000000
 ClnCor:  largest displacement from symmetrization is 3.57D-15 for atom     3.
 Variable       Old X    -DE/DX   Delta X   Delta X   Delta X     New X
                                 (Linear)    (Quad)   (Total)
    R1        6.67198  -0.02017   0.00000   0.29907   0.29907   6.97106
    R2        1.85402   0.00047   0.00000   0.00047   0.00047   1.85449
    A1        1.57384  -0.00241   0.00000  -0.02356  -0.02356   1.55028
         Item               Value     Threshold  Converged?
 Maximum Force            0.020167     0.000450     NO 
 RMS     Force            0.011730     0.000300     NO 
 Maximum Displacement     0.163027     0.001800     NO 
 RMS     Displacement     0.131250     0.001200     NO 
 Predicted change in Energy= 5.336786D-03
 GradGradGradGradGradGradGradGradGradGradGradGradGradGradGradGradGradGrad

                          Input orientation:                          
 ---------------------------------------------------------------------
 Center     Atomic      Atomic             Coordinates (Angstroms)
 Number     Number       Type             X           Y           Z
 ---------------------------------------------------------------------
      1          8           0        0.989839   -4.844938   -2.729342
      2         17           0       -0.977519   -4.573573   -5.838044
      3          1           0        0.190425   -4.582230   -2.224385
 ---------------------------------------------------------------------
                    Distance matrix (angstroms):
                    1          2          3
     1  O    0.000000
     2  Cl   3.688924   0.000000
     3  H    0.981356   3.797723   0.000000
 Stoichiometry    ClHO
 Framework group  CS[SG(ClHO)]
 Deg. of freedom     3
 Full point group                 CS      NOp   2
 Largest Abelian subgroup         CS      NOp   2
 Largest concise Abelian subgroup C1      NOp   1
                         Standard orientation:                         
 ---------------------------------------------------------------------
 Center     Atomic      Atomic             Coordinates (Angstroms)
 Number     Number       Type             X           Y           Z
 ---------------------------------------------------------------------
      1          8           0        0.037737    2.412763   -0.000000
      2         17           0        0.037737   -1.276161    0.000000
      3          1           0       -0.943413    2.392632   -0.000000
 ---------------------------------------------------------------------
 Rotational constants (GHZ):         553.5099401           3.2475550           3.2286120
 Standard basis: SVP (5D, 7F)
 There are    29 symmetry adapted cartesian basis functions of A'  symmetry.
 There are    10 symmetry adapted cartesian basis functions of A"  symmetry.
 There are    27 symmetry adapted basis functions of A'  symmetry.
 There are    10 symmetry adapted basis functions of A"  symmetry.
    37 basis functions,    69 primitive gaussians,    39 cartesian basis functions
    13 alpha electrons       13 beta electrons
       nuclear repulsion energy        26.1918751275 Hartrees.
 NAtoms=    3 NActive=    3 NUniq=    3 SFac= 1.00D+00 NAtFMM=   60 NAOKFM=F Big=F
 Integral buffers will be    131072 words long.
 Raffenetti 2 integral format.
 Two-electron integral symmetry is turned on.
 Nuclear repulsion after empirical dispersion term =       26.1910770673 Hartrees.
 One-electron integrals computed using PRISM.
 NBasis=    37 RedAO= T EigKep=  5.58D-02  NBF=    27    10
 NBsUse=    37 1.00D-06 EigRej= -1.00D+00 NBFU=    27    10
 Initial guess from the checkpoint file:  "/tmp/Gau-11232.chk"
 B after Tr=    -0.000000    0.000000    0.000000
         Rot=    1.000000    0.000000   -0.000000    0.000513 Ang=   0.06 deg.
 Initial guess orbital symmetries:
       Occupied  (A') (A') (A') (A') (A') (A") (A') (A') (A') (A")
                 (A') (A') (A")
       Virtual   (A') (A') (A') (A') (A') (A") (A') (A') (A") (A')
                 (A') (A") (A') (A") (A') (A') (A') (A") (A') (A")
                 (A') (A') (A") (A')
 ExpMin= 1.22D-01 ExpMax= 1.04D+04 ExpMxC= 1.57D+03 IAcc=2 IRadAn=         4 AccDes= 0.00D+00
 Harris functional with IExCor=  402 and IRadAn=       4 diagonalized for initial guess.
 HarFok:  IExCor=  402 AccDes= 0.00D+00 IRadAn=         4 IDoV= 1 UseB2=F ITyADJ=14
 ICtDFT=  3500011 ScaDFX=  1.000000  1.000000  1.000000  1.000000
 FoFCou: FMM=F IPFlag=           0 FMFlag=      100000 FMFlg1=           0
         NFxFlg=           0 DoJE=T BraDBF=F KetDBF=T FulRan=T
         wScrn=  0.000000 ICntrl=       500 IOpCl=  0 I1Cent=   200000004 NGrid=           0
         NMat0=    1 NMatS0=      1 NMatT0=    0 NMatD0=    1 NMtDS0=    0 NMtDT0=    0
 Petite list used in FoFCou.
 Keep R1 ints in memory in symmetry-blocked form, NReq=7153137.
 Requested convergence on RMS density matrix=1.00D-08 within 128 cycles.
 Requested convergence on MAX density matrix=1.00D-06.
 Requested convergence on             energy=1.00D-06.
 No special actions if energy rises.
 Integral accuracy reduced to 1.0D-05 until final iterations.
 Initial convergence to 1.0D-05 achieved.  Increase integral accuracy.
 SCF Done:  E(RB3LYP) =  -535.599255673     A.U. after   20 cycles
            NFock= 20  Conv=0.24D-08     -V/T= 2.0027
 Calling FoFJK, ICntrl=      2127 FMM=F ISym2X=1 I1Cent= 0 IOpClX= 0 NMat=1 NMatS=1 NMatT=0.
 ***** Axes restored to original set *****
 -------------------------------------------------------------------
 Center     Atomic                   Forces (Hartrees/Bohr)
 Number     Number              X              Y              Z
 -------------------------------------------------------------------
      1        8          -0.007951445    0.001030367   -0.013334606
      2       17           0.008572613   -0.001146895    0.013958341
      3        1          -0.000621168    0.000116528   -0.000623736
 -------------------------------------------------------------------
 Cartesian Forces:  Max     0.013958341 RMS     0.007546358

 GradGradGradGradGradGradGradGradGradGradGradGradGradGradGradGradGradGrad
 Berny optimization.
 FormGI is forming the generalized inverse of G from B-inverse, IUseBI=4.
 Internal  Forces:  Max     0.016419102 RMS     0.009525126
 Search for a saddle point.
 Step number   8 out of a maximum of  100
 All quantities printed in internal units (Hartrees-Bohrs-Radians)
 Swapping is turned off.
 Update second derivatives using D2CorX and points    6    7    8
 The second derivative matrix:
                          R1        R2        A1
           R1          -0.01238
           R2          -0.00006   0.54398
           A1           0.00196  -0.00082   0.05944
 ITU=  0  0  0  0
     Eigenvalues ---   -0.01243   0.05949   0.54398
 Eigenvectors required to have negative eigenvalues:
                          R1        A1        R2
   1                   -0.99963   0.02726  -0.00007
 RFO step:  Lambda0=1.129435759D-02 Lambda=-7.02087650D-05.
 Linear search not attempted -- option 19 set.
 Maximum step size (   0.300) exceeded in Quadratic search.
    -- Step size scaled by   0.434
 Iteration  1 RMS(Cart)=  0.08568860 RMS(Int)=  0.05722796
 Iteration  2 RMS(Cart)=  0.04635920 RMS(Int)=  0.00001406
 Iteration  3 RMS(Cart)=  0.00002048 RMS(Int)=  0.00000000
 Iteration  4 RMS(Cart)=  0.00000000 RMS(Int)=  0.00000000
 ClnCor:  largest displacement from symmetrization is 3.11D-15 for atom     3.
 Variable       Old X    -DE/DX   Delta X   Delta X   Delta X     New X
                                 (Linear)    (Quad)   (Total)
    R1        6.97106  -0.01642   0.00000   0.29911   0.29911   7.27017
    R2        1.85449   0.00022   0.00000   0.00017   0.00017   1.85467
    A1        1.55028  -0.00160   0.00000  -0.02306  -0.02306   1.52722
         Item               Value     Threshold  Converged?
 Maximum Force            0.016419     0.000450     NO 
 RMS     Force            0.009525     0.000300     NO 
 Maximum Displacement     0.163453     0.001800     NO 
 RMS     Displacement     0.131444     0.001200     NO 
 Predicted change in Energy= 4.322897D-03
 GradGradGradGradGradGradGradGradGradGradGradGradGradGradGradGradGradGrad

                          Input orientation:                          
 ---------------------------------------------------------------------
 Center     Atomic      Atomic             Coordinates (Angstroms)
 Number     Number       Type             X           Y           Z
 ---------------------------------------------------------------------
      1          8           0        1.018568   -4.848112   -2.674800
      2         17           0       -1.021595   -4.568947   -5.924539
      3          1           0        0.205772   -4.583682   -2.192432
 ---------------------------------------------------------------------
                    Distance matrix (angstroms):
                    1          2          3
     1  O    0.000000
     2  Cl   3.847207   0.000000
     3  H    0.981447   3.928774   0.000000
 Stoichiometry    ClHO
 Framework group  CS[SG(ClHO)]
 Deg. of freedom     3
 Full point group                 CS      NOp   2
 Largest Abelian subgroup         CS      NOp   2
 Largest concise Abelian subgroup C1      NOp   1
                         Standard orientation:                         
 ---------------------------------------------------------------------
 Center     Atomic      Atomic             Coordinates (Angstroms)
 Number     Number       Type             X           Y           Z
 ---------------------------------------------------------------------
      1          8           0        0.037712    2.517126    0.000000
      2         17           0        0.037712   -1.330081   -0.000000
      3          1           0       -0.942803    2.474371   -0.000000
 ---------------------------------------------------------------------
 Rotational constants (GHZ):         553.8459558           2.9878789           2.9718465
 Standard basis: SVP (5D, 7F)
 There are    29 symmetry adapted cartesian basis functions of A'  symmetry.
 There are    10 symmetry adapted cartesian basis functions of A"  symmetry.
 There are    27 symmetry adapted basis functions of A'  symmetry.
 There are    10 symmetry adapted basis functions of A"  symmetry.
    37 basis functions,    69 primitive gaussians,    39 cartesian basis functions
    13 alpha electrons       13 beta electrons
       nuclear repulsion energy        25.3098035189 Hartrees.
 NAtoms=    3 NActive=    3 NUniq=    3 SFac= 1.00D+00 NAtFMM=   60 NAOKFM=F Big=F
 Integral buffers will be    131072 words long.
 Raffenetti 2 integral format.
 Two-electron integral symmetry is turned on.
 Nuclear repulsion after empirical dispersion term =       25.3090992063 Hartrees.
 One-electron integrals computed using PRISM.
 NBasis=    37 RedAO= T EigKep=  5.59D-02  NBF=    27    10
 NBsUse=    37 1.00D-06 EigRej= -1.00D+00 NBFU=    27    10
 Initial guess from the checkpoint file:  "/tmp/Gau-11232.chk"
 B after Tr=     0.000000   -0.000000    0.000000
         Rot=    1.000000    0.000000   -0.000000    0.000485 Ang=   0.06 deg.
 Initial guess orbital symmetries:
       Occupied  (A') (A') (A') (A') (A') (A") (A') (A') (A') (A")
                 (A') (A') (A")
       Virtual   (A') (A') (A') (A') (A') (A') (A") (A') (A") (A')
                 (A') (A") (A') (A") (A') (A') (A') (A") (A') (A")
                 (A') (A') (A") (A')
 ExpMin= 1.22D-01 ExpMax= 1.04D+04 ExpMxC= 1.57D+03 IAcc=2 IRadAn=         4 AccDes= 0.00D+00
 Harris functional with IExCor=  402 and IRadAn=       4 diagonalized for initial guess.
 HarFok:  IExCor=  402 AccDes= 0.00D+00 IRadAn=         4 IDoV= 1 UseB2=F ITyADJ=14
 ICtDFT=  3500011 ScaDFX=  1.000000  1.000000  1.000000  1.000000
 FoFCou: FMM=F IPFlag=           0 FMFlag=      100000 FMFlg1=           0
         NFxFlg=           0 DoJE=T BraDBF=F KetDBF=T FulRan=T
         wScrn=  0.000000 ICntrl=       500 IOpCl=  0 I1Cent=   200000004 NGrid=           0
         NMat0=    1 NMatS0=      1 NMatT0=    0 NMatD0=    1 NMtDS0=    0 NMtDT0=    0
 Petite list used in FoFCou.
 Keep R1 ints in memory in symmetry-blocked form, NReq=7153137.
 Requested convergence on RMS density matrix=1.00D-08 within 128 cycles.
 Requested convergence on MAX density matrix=1.00D-06.
 Requested convergence on             energy=1.00D-06.
 No special actions if energy rises.
 Integral accuracy reduced to 1.0D-05 until final iterations.
 Initial convergence to 1.0D-05 achieved.  Increase integral accuracy.
 SCF Done:  E(RB3LYP) =  -535.594870061     A.U. after   19 cycles
            NFock= 19  Conv=0.88D-08     -V/T= 2.0027
 Calling FoFJK, ICntrl=      2127 FMM=F ISym2X=1 I1Cent= 0 IOpClX= 0 NMat=1 NMatS=1 NMatT=0.
 ***** Axes restored to original set *****
 -------------------------------------------------------------------
 Center     Atomic                   Forces (Hartrees/Bohr)
 Number     Number              X              Y              Z
 -------------------------------------------------------------------
      1        8          -0.006522452    0.000858495   -0.010783920
      2       17           0.006884360   -0.000920628    0.011214116
      3        1          -0.000361908    0.000062133   -0.000430196
 -------------------------------------------------------------------
 Cartesian Forces:  Max     0.011214116 RMS     0.006090891

 GradGradGradGradGradGradGradGradGradGradGradGradGradGradGradGradGradGrad
 Berny optimization.
 FormGI is forming the generalized inverse of G from B-inverse, IUseBI=4.
 Internal  Forces:  Max     0.013189545 RMS     0.007638346
 Search for a saddle point.
 Step number   9 out of a maximum of  100
 All quantities printed in internal units (Hartrees-Bohrs-Radians)
 Swapping is turned off.
 Update second derivatives using D2CorX and points    7    8    9
 The second derivative matrix:
                          R1        R2        A1
           R1          -0.01059
           R2           0.00001   0.54398
           A1           0.00270  -0.00080   0.05966
 ITU=  0  0  0  0
     Eigenvalues ---   -0.01069   0.05976   0.54398
 Eigenvectors required to have negative eigenvalues:
                          R1        A1        R2
   1                   -0.99926   0.03836   0.00007
 RFO step:  Lambda0=8.840055143D-03 Lambda=-3.93578358D-05.
 Linear search not attempted -- option 19 set.
 Maximum step size (   0.300) exceeded in Quadratic search.
    -- Step size scaled by   0.446
 Iteration  1 RMS(Cart)=  0.08573408 RMS(Int)=  0.05723386
 Iteration  2 RMS(Cart)=  0.04639418 RMS(Int)=  0.00001256
 Iteration  3 RMS(Cart)=  0.00001841 RMS(Int)=  0.00000000
 Iteration  4 RMS(Cart)=  0.00000000 RMS(Int)=  0.00000000
 ClnCor:  largest displacement from symmetrization is 1.08D-14 for atom     3.
 Variable       Old X    -DE/DX   Delta X   Delta X   Delta X     New X
                                 (Linear)    (Quad)   (Total)
    R1        7.27017  -0.01319   0.00000   0.29912   0.29912   7.56929
    R2        1.85467   0.00010   0.00000   0.00005   0.00005   1.85471
    A1        1.52722  -0.00103   0.00000  -0.02292  -0.02292   1.50430
         Item               Value     Threshold  Converged?
 Maximum Force            0.013190     0.000450     NO 
 RMS     Force            0.007638     0.000300     NO 
 Maximum Displacement     0.163643     0.001800     NO 
 RMS     Displacement     0.131525     0.001200     NO 
 Predicted change in Energy= 3.445152D-03
 GradGradGradGradGradGradGradGradGradGradGradGradGradGradGradGradGradGrad

                          Input orientation:                          
 ---------------------------------------------------------------------
 Center     Atomic      Atomic             Coordinates (Angstroms)
 Number     Number       Type             X           Y           Z
 ---------------------------------------------------------------------
      1          8           0        1.046904   -4.851170   -2.620156
      2         17           0       -1.065673   -4.564328   -6.011135
      3          1           0        0.221515   -4.585244   -2.160479
 ---------------------------------------------------------------------
                    Distance matrix (angstroms):
                    1          2          3
     1  O    0.000000
     2  Cl   4.005496   0.000000
     3  H    0.981472   4.060153   0.000000
 Stoichiometry    ClHO
 Framework group  CS[SG(ClHO)]
 Deg. of freedom     3
 Full point group                 CS      NOp   2
 Largest Abelian subgroup         CS      NOp   2
 Largest concise Abelian subgroup C1      NOp   1
                         Standard orientation:                         
 ---------------------------------------------------------------------
 Center     Atomic      Atomic             Coordinates (Angstroms)
 Number     Number       Type             X           Y           Z
 ---------------------------------------------------------------------
      1          8           0        0.037665    2.621487   -0.000000
      2         17           0        0.037665   -1.384010    0.000000
      3          1           0       -0.941637    2.556270   -0.000000
 ---------------------------------------------------------------------
 Rotational constants (GHZ):         554.8729395           2.7581106           2.7444686
 Standard basis: SVP (5D, 7F)
 There are    29 symmetry adapted cartesian basis functions of A'  symmetry.
 There are    10 symmetry adapted cartesian basis functions of A"  symmetry.
 There are    27 symmetry adapted basis functions of A'  symmetry.
 There are    10 symmetry adapted basis functions of A"  symmetry.
    37 basis functions,    69 primitive gaussians,    39 cartesian basis functions
    13 alpha electrons       13 beta electrons
       nuclear repulsion energy        24.4963549486 Hartrees.
[...]
         Item               Value     Threshold  Converged?
 Maximum Force            0.000602     0.000450     NO 
 RMS     Force            0.000349     0.000300     NO 
 Maximum Displacement     0.046847     0.001800     NO 
 RMS     Displacement     0.044982     0.001200     NO 
 Predicted change in Energy= 3.043949D-05
 GradGradGradGradGradGradGradGradGradGradGradGradGradGradGradGradGradGrad

                          Input orientation:                          
 ---------------------------------------------------------------------
 Center     Atomic      Atomic             Coordinates (Angstroms)
 Number     Number       Type             X           Y           Z
 ---------------------------------------------------------------------
      1          8           0        1.357590   -4.812483   -1.183457
      2         17           0       -1.964654   -4.456081   -7.614363
      3          1           0        0.809809   -4.732177   -1.993951
 ---------------------------------------------------------------------
                    Distance matrix (angstroms):
                    1          2          3
     1  O    0.000000
     2  Cl   7.247129   0.000000
     3  H    0.981537   6.273986   0.000000
 Stoichiometry    ClHO
 Framework group  CS[SG(ClHO)]
 Deg. of freedom     3
 Full point group                 CS      NOp   2
 Largest Abelian subgroup         CS      NOp   2
 Largest concise Abelian subgroup C1      NOp   1
                         Standard orientation:                         
 ---------------------------------------------------------------------
 Center     Atomic      Atomic             Coordinates (Angstroms)
 Number     Number       Type             X           Y           Z
 ---------------------------------------------------------------------
      1          8           0        0.004584    4.775980    0.000000
      2         17           0        0.004584   -2.471149   -0.000000
      3          1           0       -0.114591    3.801704    0.000000
 ---------------------------------------------------------------------
 Rotational constants (GHZ):       36992.4514703           0.8533739           0.8533542
 Standard basis: SVP (5D, 7F)
 There are    29 symmetry adapted cartesian basis functions of A'  symmetry.
 There are    10 symmetry adapted cartesian basis functions of A"  symmetry.
 There are    27 symmetry adapted basis functions of A'  symmetry.
 There are    10 symmetry adapted basis functions of A"  symmetry.
    37 basis functions,    69 primitive gaussians,    39 cartesian basis functions
    13 alpha electrons       13 beta electrons
       nuclear repulsion energy        15.6774763724 Hartrees.
 NAtoms=    3 NActive=    3 NUniq=    3 SFac= 1.00D+00 NAtFMM=   60 NAOKFM=F Big=F
 Integral buffers will be    131072 words long.
 Raffenetti 2 integral format.
 Two-electron integral symmetry is turned on.
 Nuclear repulsion after empirical dispersion term =       15.6772160806 Hartrees.
 One-electron integrals computed using PRISM.
 NBasis=    37 RedAO= T EigKep=  5.59D-02  NBF=    27    10
 NBsUse=    37 1.00D-06 EigRej= -1.00D+00 NBFU=    27    10
 Initial guess from the checkpoint file:  "/tmp/Gau-11232.chk"
 B after Tr=    -0.000000   -0.000000    0.000000
         Rot=    1.000000   -0.000000    0.000000    0.000303 Ang=   0.03 deg.
 Initial guess orbital symmetries:
       Occupied  (A') (A') (A') (A') (A') (A") (A') (A') (A') (A")
                 (A') (A") (A')
       Virtual   (A') (A') (A') (A') (A') (A') (A") (A") (A') (A')
                 (A') (A') (A") (A') (A") (A') (A') (A") (A') (A")
                 (A') (A') (A") (A')
 ExpMin= 1.22D-01 ExpMax= 1.04D+04 ExpMxC= 1.57D+03 IAcc=2 IRadAn=         4 AccDes= 0.00D+00
 Harris functional with IExCor=  402 and IRadAn=       4 diagonalized for initial guess.
 HarFok:  IExCor=  402 AccDes= 0.00D+00 IRadAn=         4 IDoV= 1 UseB2=F ITyADJ=14
 ICtDFT=  3500011 ScaDFX=  1.000000  1.000000  1.000000  1.000000
 FoFCou: FMM=F IPFlag=           0 FMFlag=      100000 FMFlg1=           0
         NFxFlg=           0 DoJE=T BraDBF=F KetDBF=T FulRan=T
         wScrn=  0.000000 ICntrl=       500 IOpCl=  0 I1Cent=   200000004 NGrid=           0
         NMat0=    1 NMatS0=      1 NMatT0=    0 NMatD0=    1 NMtDS0=    0 NMtDT0=    0
 Petite list used in FoFCou.
 Keep R1 ints in memory in symmetry-blocked form, NReq=7153137.
 Requested convergence on RMS density matrix=1.00D-08 within 128 cycles.
 Requested convergence on MAX density matrix=1.00D-06.
 Requested convergence on             energy=1.00D-06.
 No special actions if energy rises.
 Integral accuracy reduced to 1.0D-05 until final iterations.
 Rare condition: small coef for last iteration:  0.000D+00
 Problem detected with inexpensive integrals.
 Switching to full accuracy and repeating last cycle.
 EnCoef did   100 forward-backward iterations
 EnCoef did   100 forward-backward iterations
 SCF Done:  E(RB3LYP) =  -535.577718488     A.U. after   30 cycles
            NFock= 30  Conv=0.13D-08     -V/T= 2.0025
 Calling FoFJK, ICntrl=      2127 FMM=F ISym2X=1 I1Cent= 0 IOpClX= 0 NMat=1 NMatS=1 NMatT=0.
 ***** Axes restored to original set *****
 -------------------------------------------------------------------
 Center     Atomic                   Forces (Hartrees/Bohr)
 Number     Number              X              Y              Z
 -------------------------------------------------------------------
      1        8          -0.000288218    0.000033311   -0.000530166
      2       17           0.000272493   -0.000028962    0.000530607
      3        1           0.000015725   -0.000004349   -0.000000441
 -------------------------------------------------------------------
 Cartesian Forces:  Max     0.000530607 RMS     0.000283266

 GradGradGradGradGradGradGradGradGradGradGradGradGradGradGradGradGradGrad
 Berny optimization.
 FormGI is forming the generalized inverse of G from B-inverse, IUseBI=4.
 Internal  Forces:  Max     0.000597184 RMS     0.000345144
 Search for a saddle point.
 Step number  38 out of a maximum of  100
 All quantities printed in internal units (Hartrees-Bohrs-Radians)
 Swapping is turned off.
 Update second derivatives using D2CorX and points   36   37   38
 The second derivative matrix:
                          R1        R2        A1
           R1          -0.00010
           R2           0.00015   0.54400
           A1          -0.00002   0.00006   0.00021
 ITU=  0  0  0  0
     Eigenvalues ---   -0.00010   0.00021   0.54400
 Eigenvectors required to have negative eigenvalues:
                          R1        A1        R2
   1                   -0.99811  -0.06151   0.00028
 RFO step:  Lambda0=5.481257999D-04 Lambda=-5.81606481D-07.
 Linear search not attempted -- option 19 set.
 Maximum step size (   0.300) exceeded in Quadratic search.
    -- Step size scaled by   0.327
 Iteration  1 RMS(Cart)=  0.10046922 RMS(Int)=  0.05651796
 Iteration  2 RMS(Cart)=  0.04644502 RMS(Int)=  0.00000041
 Iteration  3 RMS(Cart)=  0.00000057 RMS(Int)=  0.00000000
 ClnCor:  largest displacement from symmetrization is 4.17D-15 for atom     1.
 Variable       Old X    -DE/DX   Delta X   Delta X   Delta X     New X
                                 (Linear)    (Quad)   (Total)
    R1       13.69509  -0.00060   0.00000   0.29787   0.29787  13.99296
    R2        1.85484  -0.00001   0.00000  -0.00009  -0.00009   1.85474
    A1        0.12172  -0.00003   0.00000   0.03565   0.03565   0.15736
         Item               Value     Threshold  Converged?
 Maximum Force            0.000597     0.000450     NO 
 RMS     Force            0.000345     0.000300     NO 
 Maximum Displacement     0.182208     0.001800     NO 
 RMS     Displacement     0.145575     0.001200     NO 
 Predicted change in Energy= 1.741941D-04
 GradGradGradGradGradGradGradGradGradGradGradGradGradGradGradGradGradGrad

                          Input orientation:                          
 ---------------------------------------------------------------------
 Center     Atomic      Atomic             Coordinates (Angstroms)
 Number     Number       Type             X           Y           Z
 ---------------------------------------------------------------------
      1          8           0        1.394752   -4.819423   -1.145778
      2         17           0       -2.010538   -4.451814   -7.710783
      3          1           0        0.818531   -4.729504   -1.935210
 ---------------------------------------------------------------------
                    Distance matrix (angstroms):
                    1          2          3
     1  O    0.000000
     2  Cl   7.404757   0.000000
     3  H    0.981489   6.437234   0.000000
 Stoichiometry    ClHO
 Framework group  CS[SG(ClHO)]
 Deg. of freedom     3
 Full point group                 CS      NOp   2
 Largest Abelian subgroup         CS      NOp   2
 Largest concise Abelian subgroup C1      NOp   1
                         Standard orientation:                         
 ---------------------------------------------------------------------
 Center     Atomic      Atomic             Coordinates (Angstroms)
 Number     Number       Type             X           Y           Z
 ---------------------------------------------------------------------
      1          8           0        0.005916    4.878855   -0.000000
      2         17           0        0.005916   -2.525902    0.000000
      3          1           0       -0.147899    3.909494   -0.000000
 ---------------------------------------------------------------------
 Rotational constants (GHZ):       22214.3652980           0.8171485           0.8171184
 Standard basis: SVP (5D, 7F)
 There are    29 symmetry adapted cartesian basis functions of A'  symmetry.
 There are    10 symmetry adapted cartesian basis functions of A"  symmetry.
 There are    27 symmetry adapted basis functions of A'  symmetry.
 There are    10 symmetry adapted basis functions of A"  symmetry.
    37 basis functions,    69 primitive gaussians,    39 cartesian basis functions
    13 alpha electrons       13 beta electrons
       nuclear repulsion energy        15.4299295222 Hartrees.
 NAtoms=    3 NActive=    3 NUniq=    3 SFac= 1.00D+00 NAtFMM=   60 NAOKFM=F Big=F
 Integral buffers will be    131072 words long.
 Raffenetti 2 integral format.
 Two-electron integral symmetry is turned on.
 Nuclear repulsion after empirical dispersion term =       15.4296712711 Hartrees.
 One-electron integrals computed using PRISM.
 NBasis=    37 RedAO= T EigKep=  5.59D-02  NBF=    27    10
 NBsUse=    37 1.00D-06 EigRej= -1.00D+00 NBFU=    27    10
 Initial guess from the checkpoint file:  "/tmp/Gau-11232.chk"
 B after Tr=     0.000000   -0.000000    0.000000
         Rot=    1.000000   -0.000000    0.000000   -0.000193 Ang=  -0.02 deg.
 Initial guess orbital symmetries:
       Occupied  (A') (A') (A') (A') (A') (A") (A') (A') (A') (A")
                 (A') (A") (A')
       Virtual   (A') (A') (A') (A') (A') (A') (A") (A") (A') (A')
                 (A') (A') (A") (A') (A") (A') (A') (A") (A') (A")
                 (A') (A') (A") (A')
 ExpMin= 1.22D-01 ExpMax= 1.04D+04 ExpMxC= 1.57D+03 IAcc=2 IRadAn=         4 AccDes= 0.00D+00
 Harris functional with IExCor=  402 and IRadAn=       4 diagonalized for initial guess.
 HarFok:  IExCor=  402 AccDes= 0.00D+00 IRadAn=         4 IDoV= 1 UseB2=F ITyADJ=14
 ICtDFT=  3500011 ScaDFX=  1.000000  1.000000  1.000000  1.000000
 FoFCou: FMM=F IPFlag=           0 FMFlag=      100000 FMFlg1=           0
         NFxFlg=           0 DoJE=T BraDBF=F KetDBF=T FulRan=T
         wScrn=  0.000000 ICntrl=       500 IOpCl=  0 I1Cent=   200000004 NGrid=           0
         NMat0=    1 NMatS0=      1 NMatT0=    0 NMatD0=    1 NMtDS0=    0 NMtDT0=    0
 Petite list used in FoFCou.
 Keep R1 ints in memory in symmetry-blocked form, NReq=7153137.
 Requested convergence on RMS density matrix=1.00D-08 within 128 cycles.
 Requested convergence on MAX density matrix=1.00D-06.
 Requested convergence on             energy=1.00D-06.
 No special actions if energy rises.
 Integral accuracy reduced to 1.0D-05 until final iterations.
 Initial convergence to 1.0D-05 achieved.  Increase integral accuracy.
 SCF Done:  E(RB3LYP) =  -535.577543246     A.U. after   32 cycles
            NFock= 32  Conv=0.61D-08     -V/T= 2.0025
 Calling FoFJK, ICntrl=      2127 FMM=F ISym2X=1 I1Cent= 0 IOpClX= 0 NMat=1 NMatS=1 NMatT=0.
 ***** Axes restored to original set *****
 -------------------------------------------------------------------
 Center     Atomic                   Forces (Hartrees/Bohr)
 Number     Number              X              Y              Z
 -------------------------------------------------------------------
      1        8          -0.000264816    0.000030840   -0.000484411
      2       17           0.000262180   -0.000027997    0.000509004
      3        1           0.000002636   -0.000002843   -0.000024593
 -------------------------------------------------------------------
 Cartesian Forces:  Max     0.000509004 RMS     0.000265615

 GradGradGradGradGradGradGradGradGradGradGradGradGradGradGradGradGradGrad
 Berny optimization.
 FormGI is forming the generalized inverse of G from B-inverse, IUseBI=4.
 Internal  Forces:  Max     0.000573233 RMS     0.000331646
 Search for a saddle point.
 Step number  39 out of a maximum of  100
 All quantities printed in internal units (Hartrees-Bohrs-Radians)
 Swapping is turned off.
 Update second derivatives using D2CorX and points   37   38   39
 The second derivative matrix:
                          R1        R2        A1
           R1          -0.00008
           R2           0.00007   0.54402
           A1          -0.00000   0.00005   0.00021
 ITU=  0  0  0  0
     Eigenvalues ---   -0.00008   0.00021   0.54402
 Eigenvectors required to have negative eigenvalues:
                          R1        A1        R2
   1                   -0.99996  -0.00899   0.00013
 RFO step:  Lambda0=5.348470114D-04 Lambda=-3.53582546D-06.
 Linear search not attempted -- option 19 set.
 Iteration  1 RMS(Cart)=  0.11517268 RMS(Int)=  0.00972993
 Iteration  2 RMS(Cart)=  0.00814105 RMS(Int)=  0.00000932
 Iteration  3 RMS(Cart)=  0.00001286 RMS(Int)=  0.00000000
 Iteration  4 RMS(Cart)=  0.00000000 RMS(Int)=  0.00000000
 ClnCor:  largest displacement from symmetrization is 4.42D-15 for atom     3.
 Variable       Old X    -DE/DX   Delta X   Delta X   Delta X     New X
                                 (Linear)    (Quad)   (Total)
    R1       13.99296  -0.00057   0.00000   0.13098   0.13098  14.12394
    R2        1.85474   0.00002   0.00000   0.00003   0.00003   1.85477
    A1        0.15736  -0.00003   0.00000  -0.12864  -0.12864   0.02872
         Item               Value     Threshold  Converged?
 Maximum Force            0.000573     0.000450     NO 
 RMS     Force            0.000332     0.000300     NO 
 Maximum Displacement     0.126567     0.001800     NO 
 RMS     Displacement     0.117701     0.001200     NO 
 Predicted change in Energy= 7.197636D-05
 GradGradGradGradGradGradGradGradGradGradGradGradGradGradGradGradGradGrad

                          Input orientation:                          
 ---------------------------------------------------------------------
 Center     Atomic      Atomic             Coordinates (Angstroms)
 Number     Number       Type             X           Y           Z
 ---------------------------------------------------------------------
      1          8           0        1.354808   -4.803984   -1.093726
      2         17           0       -2.037570   -4.447267   -7.744006
      3          1           0        0.885508   -4.749490   -1.954039
 ---------------------------------------------------------------------
                    Distance matrix (angstroms):
                    1          2          3
     1  O    0.000000
     2  Cl   7.474068   0.000000
     3  H    0.981504   6.493030   0.000000
 Stoichiometry    ClHO
 Framework group  CS[SG(ClHO)]
 Deg. of freedom     3
 Full point group                 CS      NOp   2
 Largest Abelian subgroup         CS      NOp   2
 Largest concise Abelian subgroup C1      NOp   1
                         Standard orientation:                         
 ---------------------------------------------------------------------
 Center     Atomic      Atomic             Coordinates (Angstroms)
 Number     Number       Type             X           Y           Z
 ---------------------------------------------------------------------
      1          8           0        0.001084    4.924625    0.000000
      2         17           0        0.001084   -2.549443    0.000000
      3          1           0       -0.027103    3.943526   -0.000000
 ---------------------------------------------------------------------
 Rotational constants (GHZ):      661489.1362543           0.8020918           0.8020908
 Standard basis: SVP (5D, 7F)
 There are    29 symmetry adapted cartesian basis functions of A'  symmetry.
 There are    10 symmetry adapted cartesian basis functions of A"  symmetry.
 There are    27 symmetry adapted basis functions of A'  symmetry.
 There are    10 symmetry adapted basis functions of A"  symmetry.
    37 basis functions,    69 primitive gaussians,    39 cartesian basis functions
    13 alpha electrons       13 beta electrons
       nuclear repulsion energy        15.3277244762 Hartrees.
 NAtoms=    3 NActive=    3 NUniq=    3 SFac= 1.00D+00 NAtFMM=   60 NAOKFM=F Big=F
 Integral buffers will be    131072 words long.
 Raffenetti 2 integral format.
 Two-electron integral symmetry is turned on.
 Nuclear repulsion after empirical dispersion term =       15.3274669161 Hartrees.
 One-electron integrals computed using PRISM.
 NBasis=    37 RedAO= T EigKep=  5.59D-02  NBF=    27    10
 NBsUse=    37 1.00D-06 EigRej= -1.00D+00 NBFU=    27    10
 Initial guess from the checkpoint file:  "/tmp/Gau-11232.chk"
 B after Tr=    -0.000000    0.000000    0.000000
         Rot=    1.000000    0.000000   -0.000000    0.000783 Ang=   0.09 deg.
 Initial guess orbital symmetries:
       Occupied  (A') (A') (A') (A') (A') (A") (A') (A') (A') (A")
                 (A') (A") (A')
       Virtual   (A') (A') (A') (A') (A') (A') (A") (A') (A") (A')
                 (A') (A') (A") (A') (A") (A') (A') (A") (A') (A")
                 (A') (A') (A") (A')
 ExpMin= 1.22D-01 ExpMax= 1.04D+04 ExpMxC= 1.57D+03 IAcc=2 IRadAn=         4 AccDes= 0.00D+00
 Harris functional with IExCor=  402 and IRadAn=       4 diagonalized for initial guess.
 HarFok:  IExCor=  402 AccDes= 0.00D+00 IRadAn=         4 IDoV= 1 UseB2=F ITyADJ=14
 ICtDFT=  3500011 ScaDFX=  1.000000  1.000000  1.000000  1.000000
 FoFCou: FMM=F IPFlag=           0 FMFlag=      100000 FMFlg1=           0
         NFxFlg=           0 DoJE=T BraDBF=F KetDBF=T FulRan=T
         wScrn=  0.000000 ICntrl=       500 IOpCl=  0 I1Cent=   200000004 NGrid=           0
         NMat0=    1 NMatS0=      1 NMatT0=    0 NMatD0=    1 NMtDS0=    0 NMtDT0=    0
 Petite list used in FoFCou.
 Keep R1 ints in memory in symmetry-blocked form, NReq=7153137.
 Requested convergence on RMS density matrix=1.00D-08 within 128 cycles.
 Requested convergence on MAX density matrix=1.00D-06.
 Requested convergence on             energy=1.00D-06.
 No special actions if energy rises.
 Integral accuracy reduced to 1.0D-05 until final iterations.
 Initial convergence to 1.0D-05 achieved.  Increase integral accuracy.
 >>>>>>>>>> Convergence criterion not met.
 SCF Done:  E(RB3LYP) =  -535.577471239     A.U. after  129 cycles
            NFock=128  Conv=0.55D-06     -V/T= 2.0025
 Convergence failure -- run terminated.
 Error termination via Lnk1e in /share/apps/g16.a03/g16/l502.exe at Thu Mar  6 16:43:55 2025.
 Job cpu time:       0 days  0 hours  7 minutes 36.2 seconds.
 Elapsed time:       0 days  0 hours  0 minutes 58.3 seconds.
 File lengths (MBytes):  RWF=      6 Int=      0 D2E=      0 Chk=      1 Scr=      1
