 Entering Gaussian System, Link 0=g16
 Input=ts.gjf
 Output=ts.log
 Initial command:
 /share/apps/g16.a03/g16/l1.exe "/tmp/Gau-20071.inp" -scrdir="/tmp/"
 Entering Link 1 = /share/apps/g16.a03/g16/l1.exe PID=     20074.
  
 Copyright (c) 1988,1990,1992,1993,1995,1998,2003,2009,2016,
            Gaussian, Inc.  All Rights Reserved.
  
 This is part of the Gaussian(R) 16 program.  It is based on
 the Gaussian(R) 09 system (copyright 2009, Gaussian, Inc.),
 the Gaussian(R) 03 system (copyright 2003, Gaussian, Inc.),
 the Gaussian(R) 98 system (copyright 1998, Gaussian, Inc.),
 the Gaussian(R) 94 system (copyright 1995, Gaussian, Inc.),
 the Gaussian 92(TM) system (copyright 1992, Gaussian, Inc.),
 the Gaussian 90(TM) system (copyright 1990, Gaussian, Inc.),
 the Gaussian 88(TM) system (copyright 1988, Gaussian, Inc.),
 the Gaussian 86(TM) system (copyright 1986, Carnegie Mellon
 University), and the Gaussian 82(TM) system (copyright 1983,
 Carnegie Mellon University). Gaussian is a federally registered
 trademark of Gaussian, Inc.
  
 This software contains proprietary and confidential information,
 including trade secrets, belonging to Gaussian, Inc.
  
 This software is provided under written license and may be
 used, copied, transmitted, or stored only in accord with that
 written license.
  
 The following legend is applicable only to US Government
 contracts under FAR:
  
                    RESTRICTED RIGHTS LEGEND
  
 Use, reproduction and disclosure by the US Government is
 subject to restrictions as set forth in subparagraphs (a)
 and (c) of the Commercial Computer Software - Restricted
 Rights clause in FAR 52.227-19.
  
 Gaussian, Inc.
 340 Quinnipiac St., Bldg. 40, Wallingford CT 06492
  
  
 ---------------------------------------------------------------
 Warning -- This program may not be used in any manner that
 competes with the business of Gaussian, Inc. or will provide
 assistance to any competitor of Gaussian, Inc.  The licensee
 of this program is prohibited from giving any competitor of
 Gaussian, Inc. access to this program.  By using this program,
 the user acknowledges that Gaussian, Inc. is engaged in the
 business of creating and licensing software in the field of
 computational chemistry and represents and warrants to the
 licensee that it is not a competitor of Gaussian, Inc. and that
 it will not use this program in any manner prohibited above.
 ---------------------------------------------------------------
  

 Cite this work as:
 Gaussian 16, Revision A.03,
 M. J. Frisch, G. W. Trucks, H. B. Schlegel, G. E. Scuseria, 
 M. A. Robb, J. R. Cheeseman, G. Scalmani, V. Barone, 
 G. A. Petersson, H. Nakatsuji, X. Li, M. Caricato, A. V. Marenich, 
 J. Bloino, B. G. Janesko, R. Gomperts, B. Mennucci, H. P. Hratchian, 
 J. V. Ortiz, A. F. Izmaylov, J. L. Sonnenberg, D. Williams-Young, 
 F. Ding, F. Lipparini, F. Egidi, J. Goings, B. Peng, A. Petrone, 
 T. Henderson, D. Ranasinghe, V. G. Zakrzewski, J. Gao, N. Rega, 
 G. Zheng, W. Liang, M. Hada, M. Ehara, K. Toyota, R. Fukuda, 
 J. Hasegawa, M. Ishida, T. Nakajima, Y. Honda, O. Kitao, H. Nakai, 
 T. Vreven, K. Throssell, J. A. Montgomery, Jr., J. E. Peralta, 
 F. Ogliaro, M. J. Bearpark, J. J. Heyd, E. N. Brothers, K. N. Kudin, 
 V. N. Staroverov, T. A. Keith, R. Kobayashi, J. Normand, 
 K. Raghavachari, A. P. Rendell, J. C. Burant, S. S. Iyengar, 
 J. Tomasi, M. Cossi, J. M. Millam, M. Klene, C. Adamo, R. Cammi, 
 J. W. Ochterski, R. L. Martin, K. Morokuma, O. Farkas, 
 J. B. Foresman, and D. J. Fox, Gaussian, Inc., Wallingford CT, 2016.
 
 ******************************************
 Gaussian 16:  EM64L-G16RevA.03 25-Dec-2016
                 6-Mar-2025 
 ******************************************
 %nproc=8
 Will use up to    8 processors via shared memory.
 %mem=4000MB
 --------------------------------------------------------------------
 #opt=(noeigen,calcfc,ts,recalc=5,maxcyc=200) freq B3LYP/SVP em=GD3BJ
 --------------------------------------------------------------------
 1/5=1,6=200,10=4,11=1,18=20,26=3,38=1,71=5/1,3;
 2/9=110,12=2,17=6,18=5,40=1/2;
 3/5=18,7=101,11=2,25=1,30=1,71=2,74=-5,124=41,140=1/1,2,3;
 4//1;
 5/5=2,38=5/2;
 8/6=4,10=90,11=11/1;
 11/6=1,8=1,9=11,15=111,16=1/1,2,10;
 10/6=1,13=1/2;
 6/7=2,8=2,9=2,10=2,28=1/1;
 7/10=1,18=20,25=1/1,2,3,16;
 1/5=1,6=200,10=4,11=1,18=20,26=3,71=5/3(2);
 2/9=110/2;
 99//99;
 2/9=110/2;
 3/5=18,7=101,11=2,25=1,30=1,71=1,74=-5,124=41/1,2,3;
 4/5=5,16=3,69=1/1;
 5/5=2,38=5/2;
 7//1,2,3,16;
 1/5=1,6=200,11=1,18=20,26=3,71=5/3(-5);
 2/9=110/2;
 6/7=2,8=2,9=2,10=2,19=2,28=1/1;
 99/9=1/99;
 ----------
 ts-419.gjf
 ----------
 Symbolic Z-matrix:
 Charge =  0 Multiplicity = 1
 O                     2.88666  -2.36616   2.68278 
 Cl                    2.58025  -1.92696   4.27753 
 H                     2.08365  -2.89691   2.56417 
 

 GradGradGradGradGradGradGradGradGradGradGradGradGradGradGradGradGradGrad
 Berny optimization.
 Initialization pass.
                           ----------------------------
                           !    Initial Parameters    !
                           ! (Angstroms and Degrees)  !
 --------------------------                            --------------------------
 ! Name  Definition              Value          Derivative Info.                !
 --------------------------------------------------------------------------------
 ! R1    R(1,2)                  1.6823         calculate D2E/DX2 analytically  !
 ! R2    R(1,3)                  0.9698         calculate D2E/DX2 analytically  !
 ! A1    A(2,1,3)               96.2002         calculate D2E/DX2 analytically  !
 --------------------------------------------------------------------------------
 Trust Radius=3.00D-01 FncErr=1.00D-07 GrdErr=1.00D-06 EigMax=2.50D+02 EigMin=1.00D-04
 Number of steps in this run=    100 maximum allowed number of steps=    100.
 Search for a saddle point of order  1.
 GradGradGradGradGradGradGradGradGradGradGradGradGradGradGradGradGradGrad

                          Input orientation:                          
 ---------------------------------------------------------------------
 Center     Atomic      Atomic             Coordinates (Angstroms)
 Number     Number       Type             X           Y           Z
 ---------------------------------------------------------------------
      1          8           0        2.886659   -2.366164    2.682775
      2         17           0        2.580253   -1.926955    4.277528
      3          1           0        2.083648   -2.896906    2.564168
 ---------------------------------------------------------------------
                    Distance matrix (angstroms):
                    1          2          3
     1  O    0.000000
     2  Cl   1.682268   0.000000
     3  H    0.969835   2.030523   0.000000
 Stoichiometry    ClHO
 Framework group  CS[SG(ClHO)]
 Deg. of freedom     3
 Full point group                 CS      NOp   2
 Largest Abelian subgroup         CS      NOp   2
 Largest concise Abelian subgroup C1      NOp   1
                         Standard orientation:                         
 ---------------------------------------------------------------------
 Center     Atomic      Atomic             Coordinates (Angstroms)
 Number     Number       Type             X           Y           Z
 ---------------------------------------------------------------------
      1          8           0        0.037083    1.095916    0.000000
      2         17           0        0.037083   -0.586352   -0.000000
      3          1           0       -0.927079    1.200660    0.000000
 ---------------------------------------------------------------------
 Rotational constants (GHZ):         578.6417820          15.4686142          15.0658641
 Standard basis: SVP (5D, 7F)
 There are    29 symmetry adapted cartesian basis functions of A'  symmetry.
 There are    10 symmetry adapted cartesian basis functions of A"  symmetry.
 There are    27 symmetry adapted basis functions of A'  symmetry.
 There are    10 symmetry adapted basis functions of A"  symmetry.
    37 basis functions,    69 primitive gaussians,    39 cartesian basis functions
    13 alpha electrons       13 beta electrons
       nuclear repulsion energy        51.5758843738 Hartrees.
 NAtoms=    3 NActive=    3 NUniq=    3 SFac= 1.00D+00 NAtFMM=   60 NAOKFM=F Big=F
 Integral buffers will be    131072 words long.
 Raffenetti 2 integral format.
 Two-electron integral symmetry is turned on.
 Nuclear repulsion after empirical dispersion term =       51.5742624465 Hartrees.
 One-electron integrals computed using PRISM.
 NBasis=    37 RedAO= T EigKep=  3.25D-02  NBF=    27    10
 NBsUse=    37 1.00D-06 EigRej= -1.00D+00 NBFU=    27    10
 ExpMin= 1.22D-01 ExpMax= 1.04D+04 ExpMxC= 1.57D+03 IAcc=3 IRadAn=         5 AccDes= 0.00D+00
 Harris functional with IExCor=  402 and IRadAn=       5 diagonalized for initial guess.
 HarFok:  IExCor=  402 AccDes= 0.00D+00 IRadAn=         5 IDoV= 1 UseB2=F ITyADJ=14
 ICtDFT=  3500011 ScaDFX=  1.000000  1.000000  1.000000  1.000000
 FoFCou: FMM=F IPFlag=           0 FMFlag=      100000 FMFlg1=           0
         NFxFlg=           0 DoJE=T BraDBF=F KetDBF=T FulRan=T
         wScrn=  0.000000 ICntrl=       500 IOpCl=  0 I1Cent=   200000004 NGrid=           0
         NMat0=    1 NMatS0=      1 NMatT0=    0 NMatD0=    1 NMtDS0=    0 NMtDT0=    0
 Petite list used in FoFCou.
 Initial guess orbital symmetries:
       Occupied  (A') (A') (A') (A') (A') (A") (A') (A') (A') (A')
                 (A") (A') (A")
       Virtual   (A') (A') (A') (A') (A') (A") (A') (A') (A") (A')
                 (A") (A') (A") (A') (A') (A') (A") (A') (A') (A")
                 (A") (A') (A') (A')
 The electronic state of the initial guess is 1-A'.
 Keep R1 ints in memory in symmetry-blocked form, NReq=7153137.
 Requested convergence on RMS density matrix=1.00D-08 within 128 cycles.
 Requested convergence on MAX density matrix=1.00D-06.
 Requested convergence on             energy=1.00D-06.
 No special actions if energy rises.
 Integral accuracy reduced to 1.0D-05 until final iterations.
 Initial convergence to 1.0D-05 achieved.  Increase integral accuracy.
 SCF Done:  E(RB3LYP) =  -535.757810017     A.U. after   11 cycles
            NFock= 11  Conv=0.94D-08     -V/T= 2.0024
 DoSCS=F DFT=T ScalE2(SS,OS)=  1.000000  1.000000
 Range of M.O.s used for correlation:     1    37
 NBasis=    37 NAE=    13 NBE=    13 NFC=     0 NFV=     0
 NROrb=     37 NOA=    13 NOB=    13 NVA=    24 NVB=    24
 Symmetrizing basis deriv contribution to polar:
 IMax=3 JMax=2 DiffMx= 0.00D+00
 G2DrvN: will do     4 centers at a time, making    1 passes.
 Calling FoFCou, ICntrl=  3107 FMM=F I1Cent=   0 AccDes= 0.00D+00.
 End of G2Drv F.D. properties file   721 does not exist.
 End of G2Drv F.D. properties file   722 does not exist.
 End of G2Drv F.D. properties file   788 does not exist.
          IDoAtm=111
          Differentiating once with respect to nuclear coordinates.
 Keep R1 ints in memory in symmetry-blocked form, NReq=7127942.
          There are    12 degrees of freedom in the 1st order CPHF.  IDoFFX=6 NUNeed=     0.
      6 vectors produced by pass  0 Test12= 2.60D-15 8.33D-09 XBig12= 7.71D-02 1.82D-01.
 AX will form     6 AO Fock derivatives at one time.
      6 vectors produced by pass  1 Test12= 2.60D-15 8.33D-09 XBig12= 1.86D-02 6.05D-02.
      6 vectors produced by pass  2 Test12= 2.60D-15 8.33D-09 XBig12= 6.78D-04 6.89D-03.
      6 vectors produced by pass  3 Test12= 2.60D-15 8.33D-09 XBig12= 2.13D-05 1.47D-03.
      6 vectors produced by pass  4 Test12= 2.60D-15 8.33D-09 XBig12= 2.04D-07 1.57D-04.
      6 vectors produced by pass  5 Test12= 2.60D-15 8.33D-09 XBig12= 7.51D-10 8.50D-06.
      3 vectors produced by pass  6 Test12= 2.60D-15 8.33D-09 XBig12= 2.14D-12 4.60D-07.
      1 vectors produced by pass  7 Test12= 2.60D-15 8.33D-09 XBig12= 4.75D-15 1.69D-08.
 InvSVY:  IOpt=1 It=  1 EMax= 4.44D-16
 Solved reduced A of dimension    40 with     6 vectors.
 End of Minotr F.D. properties file   721 does not exist.
 End of Minotr F.D. properties file   722 does not exist.
 End of Minotr F.D. properties file   788 does not exist.

 **********************************************************************

            Population analysis using the SCF density.

 **********************************************************************

 Orbital symmetries:
       Occupied  (A') (A') (A') (A') (A') (A") (A') (A') (A') (A')
                 (A") (A') (A")
       Virtual   (A') (A') (A') (A') (A') (A") (A') (A') (A") (A')
                 (A") (A') (A") (A') (A') (A') (A") (A') (A') (A")
                 (A') (A") (A') (A')
 The electronic state is 1-A'.
 Alpha  occ. eigenvalues -- -101.53788 -19.19605  -9.49095  -7.26411  -7.24797
 Alpha  occ. eigenvalues --   -7.24756  -1.06333  -0.78528  -0.52533  -0.44348
 Alpha  occ. eigenvalues --   -0.40648  -0.31145  -0.27533
 Alpha virt. eigenvalues --   -0.05483   0.06135   0.45794   0.55109   0.68487
 Alpha virt. eigenvalues --    0.69889   0.72304   0.75733   0.75977   0.84091
 Alpha virt. eigenvalues --    0.84589   0.93721   1.00216   1.02920   1.13012
 Alpha virt. eigenvalues --    1.34649   1.40437   1.54342   2.16851   2.62746
 Alpha virt. eigenvalues --    2.90716   2.92291   2.93174   3.64203
          Condensed to atoms (all electrons):
               1          2          3
     1  O    7.881275   0.099897   0.311493
     2  Cl   0.099897  16.842375  -0.028016
     3  H    0.311493  -0.028016   0.509601
 Mulliken charges:
               1
     1  O   -0.292666
     2  Cl   0.085744
     3  H    0.206922
 Sum of Mulliken charges =   0.00000
 Mulliken charges with hydrogens summed into heavy atoms:
               1
     1  O   -0.085744
     2  Cl   0.085744
 APT charges:
               1
     1  O   -0.493754
     2  Cl   0.109412
     3  H    0.384342
 Sum of APT charges =   0.00000
 APT charges with hydrogens summed into heavy atoms:
               1
     1  O   -0.109412
     2  Cl   0.109412
 Electronic spatial extent (au):  <R**2>=            102.0658
 Charge=              0.0000 electrons
 Dipole moment (field-independent basis, Debye):
    X=             -1.6646    Y=             -0.0287    Z=              0.0000  Tot=              1.6648
 Quadrupole moment (field-independent basis, Debye-Ang):
   XX=            -16.4196   YY=            -16.8706   ZZ=            -18.5503
   XY=             -2.3028   XZ=              0.0000   YZ=              0.0000
 Traceless Quadrupole moment (field-independent basis, Debye-Ang):
   XX=              0.8606   YY=              0.4095   ZZ=             -1.2701
   XY=             -2.3028   XZ=              0.0000   YZ=              0.0000
 Octapole moment (field-independent basis, Debye-Ang**2):
  XXX=             -2.2478  YYY=             -0.2395  ZZZ=              0.0000  XYY=             -3.0359
  XXY=              3.1428  XXZ=              0.0000  XZZ=             -0.2479  YZZ=              0.6741
  YYZ=              0.0000  XYZ=              0.0000
 Hexadecapole moment (field-independent basis, Debye-Ang**3):
 XXXX=            -16.6622 YYYY=            -75.7922 ZZZZ=            -16.5696 XXXY=             -0.4221
 XXXZ=              0.0000 YYYX=             -2.1791 YYYZ=              0.0000 ZZZX=              0.0000
 ZZZY=              0.0000 XXYY=            -14.5873 XXZZ=             -5.8455 YYZZ=            -17.2150
 XXYZ=              0.0000 YYXZ=              0.0000 ZZXY=              0.4707
 N-N= 5.157426244655D+01 E-N=-1.376197704885D+03  KE= 5.344863188143D+02
 Symmetry A'   KE= 4.837201009778D+02
 Symmetry A"   KE= 5.076621783650D+01
  Exact polarizability:   0.000   0.000   0.000   0.000   0.000   0.000
 Approx polarizability:  14.581  -0.907  32.731  -0.000  -0.000  10.259
 Calling FoFJK, ICntrl=    100147 FMM=F ISym2X=1 I1Cent= 0 IOpClX= 0 NMat=1 NMatS=1 NMatT=0.
 ***** Axes restored to original set *****
 -------------------------------------------------------------------
 Center     Atomic                   Forces (Hartrees/Bohr)
 Number     Number              X              Y              Z
 -------------------------------------------------------------------
      1        8          -0.005081488   -0.007589262   -0.011562673
      2       17           0.002277288    0.011288178    0.025338171
      3        1           0.002804199   -0.003698916   -0.013775498
 -------------------------------------------------------------------
 Cartesian Forces:  Max     0.025338171 RMS     0.011561697
 FormGI is forming the generalized inverse of G from B-inverse, IUseBI=4.

 GradGradGradGradGradGradGradGradGradGradGradGradGradGradGradGradGradGrad
 Berny optimization.
 Internal  Forces:  Max     0.026552527 RMS     0.021681735
 Search for a saddle point.
 Step number   1 out of a maximum of  100
 All quantities printed in internal units (Hartrees-Bohrs-Radians)
 Swapping is turned off.
 Second derivative matrix not updated -- analytic derivatives used.
 The second derivative matrix:
                          R1        R2        A1
           R1           0.30117
           R2          -0.00928   0.51358
           A1           0.07694  -0.00059   0.21219
 ITU=  0
     Eigenvalues ---    0.16776   0.34514   0.51404
 Eigenvectors required to have negative eigenvalues:
                          A1        R1        R2
   1                    0.86585  -0.50016  -0.01194
 RFO step:  Lambda0=1.683104768D-01 Lambda=-3.77411582D-03.
 Linear search not attempted -- option 19 set.
 Iteration  1 RMS(Cart)=  0.05824752 RMS(Int)=  0.00071638
 Iteration  2 RMS(Cart)=  0.00057843 RMS(Int)=  0.00000012
 Iteration  3 RMS(Cart)=  0.00000013 RMS(Int)=  0.00000000
 ClnCor:  largest displacement from symmetrization is 3.08D-15 for atom     3.
 Variable       Old X    -DE/DX   Delta X   Delta X   Delta X     New X
                                 (Linear)    (Quad)   (Total)
    R1        3.17903   0.02655   0.00000   0.14196   0.14196   3.32099
    R2        1.83272   0.00139   0.00000   0.00582   0.00582   1.83854
    A1        1.67901   0.02652   0.00000  -0.03803  -0.03803   1.64098
         Item               Value     Threshold  Converged?
 Maximum Force            0.026553     0.000450     NO 
 RMS     Force            0.021682     0.000300     NO 
 Maximum Displacement     0.068650     0.001800     NO 
 RMS     Displacement     0.058196     0.001200     NO 
 Predicted change in Energy= 5.047749D-06
 GradGradGradGradGradGradGradGradGradGradGradGradGradGradGradGradGradGrad

                          Input orientation:                          
 ---------------------------------------------------------------------
 Center     Atomic      Atomic             Coordinates (Angstroms)
 Number     Number       Type             X           Y           Z
 ---------------------------------------------------------------------
      1          8           0        2.895765   -2.374304    2.647934
      2         17           0        2.573820   -1.916621    4.313856
      3          1           0        2.080974   -2.899100    2.562681
 ---------------------------------------------------------------------
                    Distance matrix (angstroms):
                    1          2          3
     1  O    0.000000
     2  Cl   1.757390   0.000000
     3  H    0.972914   2.067553   0.000000
 Stoichiometry    ClHO
 Framework group  CS[SG(ClHO)]
 Deg. of freedom     3
 Full point group                 CS      NOp   2
 Largest Abelian subgroup         CS      NOp   2
 Largest concise Abelian subgroup C1      NOp   1
                         Standard orientation:                         
 ---------------------------------------------------------------------
 Center     Atomic      Atomic             Coordinates (Angstroms)
 Number     Number       Type             X           Y           Z
 ---------------------------------------------------------------------
      1          8           0        0.037328    1.146439   -0.000000
      2         17           0        0.037328   -0.610951   -0.000000
      3          1           0       -0.933192    1.214663    0.000000
 ---------------------------------------------------------------------
 Rotational constants (GHZ):         569.2966143          14.2189828          13.8724977
 Standard basis: SVP (5D, 7F)
 There are    29 symmetry adapted cartesian basis functions of A'  symmetry.
 There are    10 symmetry adapted cartesian basis functions of A"  symmetry.
 There are    27 symmetry adapted basis functions of A'  symmetry.
 There are    10 symmetry adapted basis functions of A"  symmetry.
    37 basis functions,    69 primitive gaussians,    39 cartesian basis functions
    13 alpha electrons       13 beta electrons
       nuclear repulsion energy        49.6540045278 Hartrees.
 NAtoms=    3 NActive=    3 NUniq=    3 SFac= 1.00D+00 NAtFMM=   60 NAOKFM=F Big=F
 Integral buffers will be    131072 words long.
 Raffenetti 2 integral format.
 Two-electron integral symmetry is turned on.
 Nuclear repulsion after empirical dispersion term =       49.6523858448 Hartrees.
 One-electron integrals computed using PRISM.
 NBasis=    37 RedAO= T EigKep=  3.64D-02  NBF=    27    10
 NBsUse=    37 1.00D-06 EigRej= -1.00D+00 NBFU=    27    10
 Initial guess from the checkpoint file:  "/tmp/Gau-20074.chk"
 B after Tr=    -0.000000   -0.000000    0.000000
         Rot=    1.000000   -0.000000   -0.000000    0.000159 Ang=   0.02 deg.
 Initial guess orbital symmetries:
       Occupied  (A') (A') (A') (A') (A') (A") (A') (A') (A') (A')
                 (A") (A') (A")
       Virtual   (A') (A') (A') (A') (A') (A") (A') (A') (A") (A')
                 (A") (A') (A") (A') (A') (A') (A") (A') (A') (A")
                 (A') (A") (A') (A')
 ExpMin= 1.22D-01 ExpMax= 1.04D+04 ExpMxC= 1.57D+03 IAcc=2 IRadAn=         4 AccDes= 0.00D+00
 Harris functional with IExCor=  402 and IRadAn=       4 diagonalized for initial guess.
 HarFok:  IExCor=  402 AccDes= 0.00D+00 IRadAn=         4 IDoV= 1 UseB2=F ITyADJ=14
 ICtDFT=  3500011 ScaDFX=  1.000000  1.000000  1.000000  1.000000
 FoFCou: FMM=F IPFlag=           0 FMFlag=      100000 FMFlg1=           0
         NFxFlg=           0 DoJE=T BraDBF=F KetDBF=T FulRan=T
         wScrn=  0.000000 ICntrl=       500 IOpCl=  0 I1Cent=   200000004 NGrid=           0
         NMat0=    1 NMatS0=      1 NMatT0=    0 NMatD0=    1 NMtDS0=    0 NMtDT0=    0
 Petite list used in FoFCou.
 Keep R1 ints in memory in symmetry-blocked form, NReq=7153137.
 Requested convergence on RMS density matrix=1.00D-08 within 128 cycles.
 Requested convergence on MAX density matrix=1.00D-06.
 Requested convergence on             energy=1.00D-06.
 No special actions if energy rises.
 Integral accuracy reduced to 1.0D-05 until final iterations.
 Initial convergence to 1.0D-05 achieved.  Increase integral accuracy.
 SCF Done:  E(RB3LYP) =  -535.758133991     A.U. after   11 cycles
            NFock= 11  Conv=0.35D-08     -V/T= 2.0026
 Calling FoFJK, ICntrl=      2127 FMM=F ISym2X=1 I1Cent= 0 IOpClX= 0 NMat=1 NMatS=1 NMatT=0.
 ***** Axes restored to original set *****
 -------------------------------------------------------------------
 Center     Atomic                   Forces (Hartrees/Bohr)
 Number     Number              X              Y              Z
 -------------------------------------------------------------------
      1        8          -0.010775005    0.000646670    0.018261404
      2       17           0.007370154    0.002150660   -0.005864175
      3        1           0.003404851   -0.002797329   -0.012397229
 -------------------------------------------------------------------
 Cartesian Forces:  Max     0.018261404 RMS     0.008922134

 GradGradGradGradGradGradGradGradGradGradGradGradGradGradGradGradGradGrad
 Berny optimization.
 FormGI is forming the generalized inverse of G from B-inverse, IUseBI=4.
 Internal  Forces:  Max     0.024184583 RMS     0.014436898
 Search for a saddle point.
 Step number   2 out of a maximum of  100
 All quantities printed in internal units (Hartrees-Bohrs-Radians)
 Swapping is turned off.
 Update second derivatives using D2CorX and points    1    2
 The second derivative matrix:
                          R1        R2        A1
           R1           0.25183
           R2          -0.00966   0.51358
           A1           0.07340  -0.00067   0.21247
 ITU=  0  0
     Eigenvalues ---    0.15607   0.30783   0.51398
 Eigenvectors required to have negative eigenvalues:
                          A1        R1        R2
   1                    0.79282  -0.60927  -0.01497
 RFO step:  Lambda0=1.594045643D-01 Lambda=-3.05406268D-04.
 Linear search not attempted -- option 19 set.
 Iteration  1 RMS(Cart)=  0.01871280 RMS(Int)=  0.00002649
 Iteration  2 RMS(Cart)=  0.00001849 RMS(Int)=  0.00000000
 Iteration  3 RMS(Cart)=  0.00000000 RMS(Int)=  0.00000000
 ClnCor:  largest displacement from symmetrization is 2.04D-15 for atom     3.
 Variable       Old X    -DE/DX   Delta X   Delta X   Delta X     New X
                                 (Linear)    (Quad)   (Total)
    R1        3.32099  -0.00635   0.00000   0.04413   0.04413   3.36511
    R2        1.83854  -0.00026   0.00000   0.00114   0.00114   1.83968
    A1        1.64098   0.02418   0.00000  -0.00577  -0.00577   1.63521
         Item               Value     Threshold  Converged?
 Maximum Force            0.024185     0.000450     NO 
 RMS     Force            0.014437     0.000300     NO 
 Maximum Displacement     0.023942     0.001800     NO 
 RMS     Displacement     0.018714     0.001200     NO 
 Predicted change in Energy= 6.499548D-04
 GradGradGradGradGradGradGradGradGradGradGradGradGradGradGradGradGradGrad

                          Input orientation:                          
 ---------------------------------------------------------------------
 Center     Atomic      Atomic             Coordinates (Angstroms)
 Number     Number       Type             X           Y           Z
 ---------------------------------------------------------------------
      1          8           0        2.897297   -2.377102    2.638423
      2         17           0        2.572886   -1.912227    4.326526
      3          1           0        2.080377   -2.900696    2.559522
 ---------------------------------------------------------------------
                    Distance matrix (angstroms):
                    1          2          3
     1  O    0.000000
     2  Cl   1.780742   0.000000
     3  H    0.973517   2.083732   0.000000
 Stoichiometry    ClHO
 Framework group  CS[SG(ClHO)]
 Deg. of freedom     3
 Full point group                 CS      NOp   2
 Largest Abelian subgroup         CS      NOp   2
 Largest concise Abelian subgroup C1      NOp   1
                         Standard orientation:                         
 ---------------------------------------------------------------------
 Center     Atomic      Atomic             Coordinates (Angstroms)
 Number     Number       Type             X           Y           Z
 ---------------------------------------------------------------------
      1          8           0        0.037365    1.161921   -0.000000
      2         17           0        0.037365   -0.618821    0.000000
      3          1           0       -0.934133    1.224581   -0.000000
 ---------------------------------------------------------------------
 Rotational constants (GHZ):         567.8701759          13.8553369          13.5253353
 Standard basis: SVP (5D, 7F)
 There are    29 symmetry adapted cartesian basis functions of A'  symmetry.
 There are    10 symmetry adapted cartesian basis functions of A"  symmetry.
 There are    27 symmetry adapted basis functions of A'  symmetry.
 There are    10 symmetry adapted basis functions of A"  symmetry.
    37 basis functions,    69 primitive gaussians,    39 cartesian basis functions
    13 alpha electrons       13 beta electrons
       nuclear repulsion energy        49.0805173829 Hartrees.
 NAtoms=    3 NActive=    3 NUniq=    3 SFac= 1.00D+00 NAtFMM=   60 NAOKFM=F Big=F
 Integral buffers will be    131072 words long.
 Raffenetti 2 integral format.
 Two-electron integral symmetry is turned on.
 Nuclear repulsion after empirical dispersion term =       49.0789000267 Hartrees.
 One-electron integrals computed using PRISM.
 NBasis=    37 RedAO= T EigKep=  3.77D-02  NBF=    27    10
 NBsUse=    37 1.00D-06 EigRej= -1.00D+00 NBFU=    27    10
 Initial guess from the checkpoint file:  "/tmp/Gau-20074.chk"
 B after Tr=     0.000000   -0.000000   -0.000000
         Rot=    1.000000    0.000000   -0.000000    0.000217 Ang=   0.02 deg.
 Initial guess orbital symmetries:
       Occupied  (A') (A') (A') (A') (A') (A") (A') (A') (A') (A')
                 (A") (A') (A")
       Virtual   (A') (A') (A') (A') (A') (A") (A') (A') (A") (A')
                 (A") (A') (A") (A') (A') (A') (A") (A') (A') (A")
                 (A') (A') (A") (A')
 ExpMin= 1.22D-01 ExpMax= 1.04D+04 ExpMxC= 1.57D+03 IAcc=2 IRadAn=         4 AccDes= 0.00D+00
 Harris functional with IExCor=  402 and IRadAn=       4 diagonalized for initial guess.
 HarFok:  IExCor=  402 AccDes= 0.00D+00 IRadAn=         4 IDoV= 1 UseB2=F ITyADJ=14
 ICtDFT=  3500011 ScaDFX=  1.000000  1.000000  1.000000  1.000000
 FoFCou: FMM=F IPFlag=           0 FMFlag=      100000 FMFlg1=           0
         NFxFlg=           0 DoJE=T BraDBF=F KetDBF=T FulRan=T
         wScrn=  0.000000 ICntrl=       500 IOpCl=  0 I1Cent=   200000004 NGrid=           0
         NMat0=    1 NMatS0=      1 NMatT0=    0 NMatD0=    1 NMtDS0=    0 NMtDT0=    0
 Petite list used in FoFCou.
 Keep R1 ints in memory in symmetry-blocked form, NReq=7153137.
 Requested convergence on RMS density matrix=1.00D-08 within 128 cycles.
 Requested convergence on MAX density matrix=1.00D-06.
 Requested convergence on             energy=1.00D-06.
 No special actions if energy rises.
 Integral accuracy reduced to 1.0D-05 until final iterations.
 Initial convergence to 1.0D-05 achieved.  Increase integral accuracy.
 SCF Done:  E(RB3LYP) =  -535.757533285     A.U. after   11 cycles
            NFock= 11  Conv=0.31D-08     -V/T= 2.0027
 Calling FoFJK, ICntrl=      2127 FMM=F ISym2X=1 I1Cent= 0 IOpClX= 0 NMat=1 NMatS=1 NMatT=0.
 ***** Axes restored to original set *****
 -------------------------------------------------------------------
 Center     Atomic                   Forces (Hartrees/Bohr)
 Number     Number              X              Y              Z
 -------------------------------------------------------------------
      1        8          -0.011594105    0.002869447    0.025204574
      2       17           0.008351987   -0.000321477   -0.013695454
      3        1           0.003242118   -0.002547970   -0.011509120
 -------------------------------------------------------------------
 Cartesian Forces:  Max     0.025204574 RMS     0.011473716

 GradGradGradGradGradGradGradGradGradGradGradGradGradGradGradGradGradGrad
 Berny optimization.
 FormGI is forming the generalized inverse of G from B-inverse, IUseBI=4.
 Internal  Forces:  Max     0.022476944 RMS     0.015472739
 Search for a saddle point.
 Step number   3 out of a maximum of  100
 All quantities printed in internal units (Hartrees-Bohrs-Radians)
 Swapping is turned off.
 Update second derivatives using D2CorX and points    1    2    3
 The second derivative matrix:
                          R1        R2        A1
           R1           0.19566
           R2          -0.00969   0.51358
           A1           0.06644  -0.00071   0.21195
 ITU=  0  0  0
     Eigenvalues ---    0.13674   0.27055   0.51390
 Eigenvectors required to have negative eigenvalues:
                          R1        A1        R2
   1                   -0.74940   0.66187  -0.01802
 RFO step:  Lambda0=1.414565711D-01 Lambda=-1.90881127D-04.
 Linear search not attempted -- option 19 set.
 Iteration  1 RMS(Cart)=  0.01808793 RMS(Int)=  0.00001761
 Iteration  2 RMS(Cart)=  0.00002255 RMS(Int)=  0.00000000
 Iteration  3 RMS(Cart)=  0.00000000 RMS(Int)=  0.00000000
 ClnCor:  largest displacement from symmetrization is 1.26D-15 for atom     3.
 Variable       Old X    -DE/DX   Delta X   Delta X   Delta X     New X
                                 (Linear)    (Quad)   (Total)
    R1        3.36511  -0.01459   0.00000   0.03746   0.03746   3.40258
    R2        1.83968  -0.00042   0.00000   0.00093   0.00093   1.84061
    A1        1.63521   0.02248   0.00000   0.00233   0.00233   1.63753
         Item               Value     Threshold  Converged?
 Maximum Force            0.022477     0.000450     NO 
 RMS     Force            0.015473     0.000300     NO 
 Maximum Displacement     0.023602     0.001800     NO 
 RMS     Displacement     0.018099     0.001200     NO 
 Predicted change in Energy= 6.381629D-04
 GradGradGradGradGradGradGradGradGradGradGradGradGradGradGradGradGradGrad

                          Input orientation:                          
 ---------------------------------------------------------------------
 Center     Atomic      Atomic             Coordinates (Angstroms)
 Number     Number       Type             X           Y           Z
 ---------------------------------------------------------------------
      1          8           0        2.897284   -2.379612    2.632027
      2         17           0        2.573410   -1.907023    4.339015
      3          1           0        2.079865   -2.903390    2.553429
 ---------------------------------------------------------------------
                    Distance matrix (angstroms):
                    1          2          3
     1  O    0.000000
     2  Cl   1.800567   0.000000
     3  H    0.974010   2.103486   0.000000
 Stoichiometry    ClHO
 Framework group  CS[SG(ClHO)]
 Deg. of freedom     3
 Full point group                 CS      NOp   2
 Largest Abelian subgroup         CS      NOp   2
 Largest concise Abelian subgroup C1      NOp   1
                         Standard orientation:                         
 ---------------------------------------------------------------------
 Center     Atomic      Atomic             Coordinates (Angstroms)
 Number     Number       Type             X           Y           Z
 ---------------------------------------------------------------------
      1          8           0        0.037379    1.174796    0.000000
      2         17           0        0.037379   -0.625772    0.000000
      3          1           0       -0.934463    1.239751    0.000000
 ---------------------------------------------------------------------
 Rotational constants (GHZ):         567.5185354          13.5507193          13.2347122
 Standard basis: SVP (5D, 7F)
 There are    29 symmetry adapted cartesian basis functions of A'  symmetry.
 There are    10 symmetry adapted cartesian basis functions of A"  symmetry.
 There are    27 symmetry adapted basis functions of A'  symmetry.
 There are    10 symmetry adapted basis functions of A"  symmetry.
    37 basis functions,    69 primitive gaussians,    39 cartesian basis functions
    13 alpha electrons       13 beta electrons
       nuclear repulsion energy        48.5927778918 Hartrees.
 NAtoms=    3 NActive=    3 NUniq=    3 SFac= 1.00D+00 NAtFMM=   60 NAOKFM=F Big=F
 Integral buffers will be    131072 words long.
 Raffenetti 2 integral format.
 Two-electron integral symmetry is turned on.
 Nuclear repulsion after empirical dispersion term =       48.5911620280 Hartrees.
 One-electron integrals computed using PRISM.
 NBasis=    37 RedAO= T EigKep=  3.87D-02  NBF=    27    10
 NBsUse=    37 1.00D-06 EigRej= -1.00D+00 NBFU=    27    10
 Initial guess from the checkpoint file:  "/tmp/Gau-20074.chk"
 B after Tr=     0.000000    0.000000   -0.000000
         Rot=    1.000000    0.000000   -0.000000    0.000359 Ang=   0.04 deg.
 Initial guess orbital symmetries:
       Occupied  (A') (A') (A') (A') (A') (A") (A') (A') (A') (A')
                 (A") (A') (A")
       Virtual   (A') (A') (A') (A') (A') (A") (A') (A') (A") (A')
                 (A") (A') (A") (A') (A') (A') (A") (A') (A') (A")
                 (A') (A') (A") (A')
 ExpMin= 1.22D-01 ExpMax= 1.04D+04 ExpMxC= 1.57D+03 IAcc=2 IRadAn=         4 AccDes= 0.00D+00
 Harris functional with IExCor=  402 and IRadAn=       4 diagonalized for initial guess.
 HarFok:  IExCor=  402 AccDes= 0.00D+00 IRadAn=         4 IDoV= 1 UseB2=F ITyADJ=14
 ICtDFT=  3500011 ScaDFX=  1.000000  1.000000  1.000000  1.000000
 FoFCou: FMM=F IPFlag=           0 FMFlag=      100000 FMFlg1=           0
         NFxFlg=           0 DoJE=T BraDBF=F KetDBF=T FulRan=T
         wScrn=  0.000000 ICntrl=       500 IOpCl=  0 I1Cent=   200000004 NGrid=           0
         NMat0=    1 NMatS0=      1 NMatT0=    0 NMatD0=    1 NMtDS0=    0 NMtDT0=    0
 Petite list used in FoFCou.
 Keep R1 ints in memory in symmetry-blocked form, NReq=7153137.
 Requested convergence on RMS density matrix=1.00D-08 within 128 cycles.
 Requested convergence on MAX density matrix=1.00D-06.
 Requested convergence on             energy=1.00D-06.
 No special actions if energy rises.
 Integral accuracy reduced to 1.0D-05 until final iterations.
 Initial convergence to 1.0D-05 achieved.  Increase integral accuracy.
 SCF Done:  E(RB3LYP) =  -535.756908538     A.U. after   10 cycles
            NFock= 10  Conv=0.43D-08     -V/T= 2.0027
 Calling FoFJK, ICntrl=      2127 FMM=F ISym2X=1 I1Cent= 0 IOpClX= 0 NMat=1 NMatS=1 NMatT=0.
 ***** Axes restored to original set *****
 -------------------------------------------------------------------
 Center     Atomic                   Forces (Hartrees/Bohr)
 Number     Number              X              Y              Z
 -------------------------------------------------------------------
      1        8          -0.011765789    0.004698694    0.030144090
      2       17           0.008777663   -0.002546702   -0.020038453
      3        1           0.002988126   -0.002151991   -0.010105638
 -------------------------------------------------------------------
 Cartesian Forces:  Max     0.030144090 RMS     0.013621609

 GradGradGradGradGradGradGradGradGradGradGradGradGradGradGradGradGradGrad
 Berny optimization.
 FormGI is forming the generalized inverse of G from B-inverse, IUseBI=4.
 Internal  Forces:  Max     0.021244576 RMS     0.016758334
 Search for a saddle point.
 Step number   4 out of a maximum of  100
 All quantities printed in internal units (Hartrees-Bohrs-Radians)
 Swapping is turned off.
 Update second derivatives using D2CorX and points    1    2    3    4
 The second derivative matrix:
                          R1        R2        A1
           R1           0.17422
           R2          -0.00959   0.51358
           A1           0.05918  -0.00068   0.20987
 ITU=  0  0  0  0
     Eigenvalues ---    0.13009   0.25370   0.51387
 Eigenvectors required to have negative eigenvalues:
                          R1        A1        R2
   1                   -0.80306   0.59559  -0.01903
 RFO step:  Lambda0=1.362041029D-01 Lambda=-4.09914799D-05.
 Linear search not attempted -- option 19 set.
 Iteration  1 RMS(Cart)=  0.00925245 RMS(Int)=  0.00000538
 Iteration  2 RMS(Cart)=  0.00000656 RMS(Int)=  0.00000000
 Iteration  3 RMS(Cart)=  0.00000000 RMS(Int)=  0.00000000
 ClnCor:  largest displacement from symmetrization is 2.18D-15 for atom     1.
 Variable       Old X    -DE/DX   Delta X   Delta X   Delta X     New X
                                 (Linear)    (Quad)   (Total)
    R1        3.40258  -0.02124   0.00000   0.01777   0.01777   3.42035
    R2        1.84061  -0.00053   0.00000   0.00042   0.00042   1.84104
    A1        1.63753   0.01977   0.00000   0.00264   0.00264   1.64017
         Item               Value     Threshold  Converged?
 Maximum Force            0.021245     0.000450     NO 
 RMS     Force            0.016758     0.000300     NO 
 Maximum Displacement     0.011894     0.001800     NO 
 RMS     Displacement     0.009256     0.001200     NO 
 Predicted change in Energy= 3.566053D-04
 GradGradGradGradGradGradGradGradGradGradGradGradGradGradGradGradGradGrad

                          Input orientation:                          
 ---------------------------------------------------------------------
 Center     Atomic      Atomic             Coordinates (Angstroms)
 Number     Number       Type             X           Y           Z
 ---------------------------------------------------------------------
      1          8           0        2.896997   -2.380831    2.629356
      2         17           0        2.573940   -1.904241    4.345309
      3          1           0        2.079623   -2.904953    2.549806
 ---------------------------------------------------------------------
                    Distance matrix (angstroms):
                    1          2          3
     1  O    0.000000
     2  Cl   1.809972   0.000000
     3  H    0.974235   2.114145   0.000000
 Stoichiometry    ClHO
 Framework group  CS[SG(ClHO)]
 Deg. of freedom     3
 Full point group                 CS      NOp   2
 Largest Abelian subgroup         CS      NOp   2
 Largest concise Abelian subgroup C1      NOp   1
                         Standard orientation:                         
 ---------------------------------------------------------------------
 Center     Atomic      Atomic             Coordinates (Angstroms)
 Number     Number       Type             X           Y           Z
 ---------------------------------------------------------------------
      1          8           0        0.037380    1.180846    0.000000
      2         17           0        0.037380   -0.629126   -0.000000
      3          1           0       -0.934510    1.248382    0.000000
 ---------------------------------------------------------------------
 Rotational constants (GHZ):         567.5433719          13.4083132          13.0988505
 Standard basis: SVP (5D, 7F)
 There are    29 symmetry adapted cartesian basis functions of A'  symmetry.
 There are    10 symmetry adapted cartesian basis functions of A"  symmetry.
 There are    27 symmetry adapted basis functions of A'  symmetry.
 There are    10 symmetry adapted basis functions of A"  symmetry.
    37 basis functions,    69 primitive gaussians,    39 cartesian basis functions
    13 alpha electrons       13 beta electrons
       nuclear repulsion energy        48.3625251168 Hartrees.
 NAtoms=    3 NActive=    3 NUniq=    3 SFac= 1.00D+00 NAtFMM=   60 NAOKFM=F Big=F
 Integral buffers will be    131072 words long.
 Raffenetti 2 integral format.
 Two-electron integral symmetry is turned on.
 Nuclear repulsion after empirical dispersion term =       48.3609100612 Hartrees.
 One-electron integrals computed using PRISM.
 NBasis=    37 RedAO= T EigKep=  3.92D-02  NBF=    27    10
 NBsUse=    37 1.00D-06 EigRej= -1.00D+00 NBFU=    27    10
 Initial guess from the checkpoint file:  "/tmp/Gau-20074.chk"
 B after Tr=    -0.000000   -0.000000    0.000000
         Rot=    1.000000   -0.000000    0.000000    0.000206 Ang=   0.02 deg.
 Initial guess orbital symmetries:
       Occupied  (A') (A') (A') (A') (A') (A") (A') (A') (A') (A')
                 (A") (A') (A")
       Virtual   (A') (A') (A') (A') (A') (A") (A') (A') (A") (A')
                 (A") (A') (A") (A') (A') (A') (A") (A') (A') (A")
                 (A') (A') (A") (A')
 Keep R1 ints in memory in symmetry-blocked form, NReq=7153137.
 Requested convergence on RMS density matrix=1.00D-08 within 128 cycles.
 Requested convergence on MAX density matrix=1.00D-06.
 Requested convergence on             energy=1.00D-06.
 No special actions if energy rises.
 SCF Done:  E(RB3LYP) =  -535.756554035     A.U. after    9 cycles
            NFock=  9  Conv=0.17D-08     -V/T= 2.0028
 Calling FoFJK, ICntrl=      2127 FMM=F ISym2X=1 I1Cent= 0 IOpClX= 0 NMat=1 NMatS=1 NMatT=0.
 ***** Axes restored to original set *****
 -------------------------------------------------------------------
 Center     Atomic                   Forces (Hartrees/Bohr)
 Number     Number              X              Y              Z
 -------------------------------------------------------------------
      1        8          -0.011722434    0.005537309    0.032220454
      2       17           0.008881875   -0.003603041   -0.022898699
      3        1           0.002840559   -0.001934268   -0.009321754
 -------------------------------------------------------------------
 Cartesian Forces:  Max     0.032220454 RMS     0.014610347

 GradGradGradGradGradGradGradGradGradGradGradGradGradGradGradGradGradGrad
 Berny optimization.
 FormGI is forming the generalized inverse of G from B-inverse, IUseBI=4.
 Internal  Forces:  Max     0.024243535 RMS     0.017525732
 Search for a saddle point.
 Step number   5 out of a maximum of  100
 All quantities printed in internal units (Hartrees-Bohrs-Radians)
 Swapping is turned off.
 Update second derivatives using D2CorX and points    2    3    4    5
 The second derivative matrix:
                          R1        R2        A1
           R1           0.16091
           R2          -0.00956   0.51358
           A1           0.05425  -0.00067   0.20804
 ITU=  0  0  0  0
     Eigenvalues ---    0.12518   0.24350   0.51386
 Eigenvectors required to have negative eigenvalues:
                          R1        A1        R2
   1                   -0.83653   0.54756  -0.01965
 RFO step:  Lambda0=1.321198767D-01 Lambda=-1.64130243D-05.
 Linear search not attempted -- option 19 set.
 Iteration  1 RMS(Cart)=  0.00625173 RMS(Int)=  0.00000272
 Iteration  2 RMS(Cart)=  0.00000309 RMS(Int)=  0.00000000
 Iteration  3 RMS(Cart)=  0.00000000 RMS(Int)=  0.00000000
 ClnCor:  largest displacement from symmetrization is 2.04D-15 for atom     3.
 Variable       Old X    -DE/DX   Delta X   Delta X   Delta X     New X
                                 (Linear)    (Quad)   (Total)
    R1        3.42035  -0.02424   0.00000   0.01136   0.01136   3.43171
    R2        1.84104  -0.00058   0.00000   0.00028   0.00028   1.84132
    A1        1.64017   0.01826   0.00000   0.00237   0.00237   1.64255
         Item               Value     Threshold  Converged?
 Maximum Force            0.024244     0.000450     NO 
 RMS     Force            0.017526     0.000300     NO 
 Maximum Displacement     0.007917     0.001800     NO 
 RMS     Displacement     0.006253     0.001200     NO 
 Predicted change in Energy= 2.446677D-04
 GradGradGradGradGradGradGradGradGradGradGradGradGradGradGradGradGradGrad

                          Input orientation:                          
 ---------------------------------------------------------------------
 Center     Atomic      Atomic             Coordinates (Angstroms)
 Number     Number       Type             X           Y           Z
 ---------------------------------------------------------------------
      1          8           0        2.896690   -2.381620    2.627813
      2         17           0        2.574404   -1.902321    4.349499
      3          1           0        2.079465   -2.906084    2.547160
 ---------------------------------------------------------------------
                    Distance matrix (angstroms):
                    1          2          3
     1  O    0.000000
     2  Cl   1.815984   0.000000
     3  H    0.974384   2.121539   0.000000
 Stoichiometry    ClHO
 Framework group  CS[SG(ClHO)]
 Deg. of freedom     3
 Full point group                 CS      NOp   2
 Largest Abelian subgroup         CS      NOp   2
 Largest concise Abelian subgroup C1      NOp   1
                         Standard orientation:                         
 ---------------------------------------------------------------------
 Center     Atomic      Atomic             Coordinates (Angstroms)
 Number     Number       Type             X           Y           Z
 ---------------------------------------------------------------------
      1          8           0        0.037380    1.184688   -0.000000
      2         17           0        0.037380   -0.631297    0.000000
      3          1           0       -0.934497    1.254542    0.000000
 ---------------------------------------------------------------------
 Rotational constants (GHZ):         567.6390917          13.3178298          13.0125325
 Standard basis: SVP (5D, 7F)
 There are    29 symmetry adapted cartesian basis functions of A'  symmetry.
 There are    10 symmetry adapted cartesian basis functions of A"  symmetry.
 There are    27 symmetry adapted basis functions of A'  symmetry.
 There are    10 symmetry adapted basis functions of A"  symmetry.
    37 basis functions,    69 primitive gaussians,    39 cartesian basis functions
    13 alpha electrons       13 beta electrons
       nuclear repulsion energy        48.2153951079 Hartrees.
 NAtoms=    3 NActive=    3 NUniq=    3 SFac= 1.00D+00 NAtFMM=   60 NAOKFM=F Big=F
 Integral buffers will be    131072 words long.
 Raffenetti 2 integral format.
 Two-electron integral symmetry is turned on.
 Nuclear repulsion after empirical dispersion term =       48.2137806144 Hartrees.
 One-electron integrals computed using PRISM.
 NBasis=    37 RedAO= T EigKep=  3.95D-02  NBF=    27    10
 NBsUse=    37 1.00D-06 EigRej= -1.00D+00 NBFU=    27    10
 Initial guess from the checkpoint file:  "/tmp/Gau-20074.chk"
 B after Tr=     0.000000    0.000000   -0.000000
         Rot=    1.000000    0.000000    0.000000    0.000147 Ang=   0.02 deg.
 Initial guess orbital symmetries:
       Occupied  (A') (A') (A') (A') (A') (A") (A') (A') (A') (A')
                 (A") (A') (A")
       Virtual   (A') (A') (A') (A') (A') (A") (A') (A') (A") (A')
                 (A") (A') (A") (A') (A') (A') (A") (A') (A') (A")
                 (A') (A') (A") (A')
 Keep R1 ints in memory in symmetry-blocked form, NReq=7153137.
 Requested convergence on RMS density matrix=1.00D-08 within 128 cycles.
 Requested convergence on MAX density matrix=1.00D-06.
 Requested convergence on             energy=1.00D-06.
 No special actions if energy rises.
 SCF Done:  E(RB3LYP) =  -535.756309814     A.U. after    8 cycles
            NFock=  8  Conv=0.73D-08     -V/T= 2.0028
 Calling FoFJK, ICntrl=      2127 FMM=F ISym2X=1 I1Cent= 0 IOpClX= 0 NMat=1 NMatS=1 NMatT=0.
 ***** Axes restored to original set *****
 -------------------------------------------------------------------
 Center     Atomic                   Forces (Hartrees/Bohr)
 Number     Number              X              Y              Z
 -------------------------------------------------------------------
      1        8          -0.011649233    0.006063459    0.033452266
      2       17           0.008909207   -0.004285942   -0.024686072
      3        1           0.002740026   -0.001777517   -0.008766194
 -------------------------------------------------------------------
 Cartesian Forces:  Max     0.033452266 RMS     0.015224918

 GradGradGradGradGradGradGradGradGradGradGradGradGradGradGradGradGradGrad
 Berny optimization.
 FormGI is forming the generalized inverse of G from B-inverse, IUseBI=4.
 Internal  Forces:  Max     0.026116821 RMS     0.018054120
 Search for a saddle point.
 Step number   6 out of a maximum of  100
 All quantities printed in internal units (Hartrees-Bohrs-Radians)
 Swapping is turned off.
 Second derivative matrix not updated -- analytic derivatives used.
 The second derivative matrix:
                          R1        R2        A1
           R1           0.16091
           R2          -0.00956   0.51358
           A1           0.05425  -0.00067   0.20804
 ITU=  0  0  0  0
     Eigenvalues ---    0.12518   0.24350   0.51386
 Eigenvectors required to have negative eigenvalues:
                          R1        A1        R2
   1                   -0.83653   0.54756  -0.01965
 RFO step:  Lambda0=1.325527968D-01 Lambda=-2.41543731D-08.
 Linear search not attempted -- option 19 set.
 Iteration  1 RMS(Cart)=  0.00023970 RMS(Int)=  0.00000000
 Iteration  2 RMS(Cart)=  0.00000000 RMS(Int)=  0.00000000
 ClnCor:  largest displacement from symmetrization is 9.93D-16 for atom     3.
 Variable       Old X    -DE/DX   Delta X   Delta X   Delta X     New X
                                 (Linear)    (Quad)   (Total)
    R1        3.43171  -0.02612   0.00000   0.00044   0.00044   3.43215
    R2        1.84132  -0.00062   0.00000   0.00001   0.00001   1.84133
    A1        1.64255   0.01719   0.00000   0.00009   0.00009   1.64264
         Item               Value     Threshold  Converged?
 Maximum Force            0.026117     0.000450     NO 
 RMS     Force            0.018054     0.000300     NO 
 Maximum Displacement     0.000304     0.001800     YES
 RMS     Displacement     0.000240     0.001200     YES
 Predicted change in Energy= 9.841807D-06
 GradGradGradGradGradGradGradGradGradGradGradGradGradGradGradGradGradGrad

                          Input orientation:                          
 ---------------------------------------------------------------------
 Center     Atomic      Atomic             Coordinates (Angstroms)
 Number     Number       Type             X           Y           Z
 ---------------------------------------------------------------------
      1          8           0        2.896678   -2.381651    2.627753
      2         17           0        2.574422   -1.902248    4.349659
      3          1           0        2.079460   -2.906127    2.547058
 ---------------------------------------------------------------------
                    Distance matrix (angstroms):
                    1          2          3
     1  O    0.000000
     2  Cl   1.816215   0.000000
     3  H    0.974388   2.121822   0.000000
 Stoichiometry    ClHO
 Framework group  CS[SG(ClHO)]
 Deg. of freedom     3
 Full point group                 CS      NOp   2
 Largest Abelian subgroup         CS      NOp   2
 Largest concise Abelian subgroup C1      NOp   1
                         Standard orientation:                         
 ---------------------------------------------------------------------
 Center     Atomic      Atomic             Coordinates (Angstroms)
 Number     Number       Type             X           Y           Z
 ---------------------------------------------------------------------
      1          8           0        0.037380    1.184835    0.000000
      2         17           0        0.037380   -0.631380   -0.000000
      3          1           0       -0.934495    1.254778    0.000000
 ---------------------------------------------------------------------
 Rotational constants (GHZ):         567.6444221          13.3143767          13.0092387
 Standard basis: SVP (5D, 7F)
 There are    29 symmetry adapted cartesian basis functions of A'  symmetry.
 There are    10 symmetry adapted cartesian basis functions of A"  symmetry.
 There are    27 symmetry adapted basis functions of A'  symmetry.
 There are    10 symmetry adapted basis functions of A"  symmetry.
    37 basis functions,    69 primitive gaussians,    39 cartesian basis functions
    13 alpha electrons       13 beta electrons
       nuclear repulsion energy        48.2097768622 Hartrees.
 NAtoms=    3 NActive=    3 NUniq=    3 SFac= 1.00D+00 NAtFMM=   60 NAOKFM=F Big=F
 Integral buffers will be    131072 words long.
 Raffenetti 2 integral format.
 Two-electron integral symmetry is turned on.
 Nuclear repulsion after empirical dispersion term =       48.2081623905 Hartrees.
 One-electron integrals computed using PRISM.
 NBasis=    37 RedAO= T EigKep=  3.95D-02  NBF=    27    10
 NBsUse=    37 1.00D-06 EigRej= -1.00D+00 NBFU=    27    10
 Initial guess from the checkpoint file:  "/tmp/Gau-20074.chk"
 B after Tr=    -0.000000   -0.000000    0.000000
         Rot=    1.000000   -0.000000    0.000000    0.000006 Ang=   0.00 deg.
 Initial guess orbital symmetries:
       Occupied  (A') (A') (A') (A') (A') (A") (A') (A') (A') (A')
                 (A") (A') (A")
       Virtual   (A') (A') (A') (A') (A') (A") (A') (A') (A") (A')
                 (A") (A') (A") (A') (A') (A') (A") (A') (A') (A")
                 (A') (A') (A") (A')
 Keep R1 ints in memory in symmetry-blocked form, NReq=7153137.
 Requested convergence on RMS density matrix=1.00D-08 within 128 cycles.
 Requested convergence on MAX density matrix=1.00D-06.
 Requested convergence on             energy=1.00D-06.
 No special actions if energy rises.
 SCF Done:  E(RB3LYP) =  -535.756299973     A.U. after    6 cycles
            NFock=  6  Conv=0.54D-08     -V/T= 2.0028
 Calling FoFJK, ICntrl=      2127 FMM=F ISym2X=1 I1Cent= 0 IOpClX= 0 NMat=1 NMatS=1 NMatT=0.
 ***** Axes restored to original set *****
 -------------------------------------------------------------------
 Center     Atomic                   Forces (Hartrees/Bohr)
 Number     Number              X              Y              Z
 -------------------------------------------------------------------
      1        8          -0.011645231    0.006084019    0.033498641
      2       17           0.008910084   -0.004311777   -0.024753447
      3        1           0.002735148   -0.001772242   -0.008745194
 -------------------------------------------------------------------
 Cartesian Forces:  Max     0.033498641 RMS     0.015248315

 GradGradGradGradGradGradGradGradGradGradGradGradGradGradGradGradGradGrad
 Berny optimization.
 FormGI is forming the generalized inverse of G from B-inverse, IUseBI=4.
 Internal  Forces:  Max     0.026187443 RMS     0.018075299
 Search for a saddle point.
 Step number   7 out of a maximum of  100
 All quantities printed in internal units (Hartrees-Bohrs-Radians)
 Swapping is turned off.
 Update second derivatives using D2CorX and points    4    5    7
 The second derivative matrix:
                          R1        R2        A1
           R1           0.15434
           R2          -0.00957   0.51358
           A1           0.05108  -0.00070   0.20683
 ITU=  0  0  0  0
     Eigenvalues ---    0.12300   0.23790   0.51385
 Eigenvectors required to have negative eigenvalues:
                          R1        A1        R2
   1                   -0.85384   0.52015  -0.01998
 RFO step:  Lambda0=1.305048905D-01 Lambda=-4.36500087D-06.
 Linear search not attempted -- option 19 set.
 Iteration  1 RMS(Cart)=  0.00334279 RMS(Int)=  0.00000083
 Iteration  2 RMS(Cart)=  0.00000089 RMS(Int)=  0.00000000
 ClnCor:  largest displacement from symmetrization is 4.62D-15 for atom     1.
 Variable       Old X    -DE/DX   Delta X   Delta X   Delta X     New X
                                 (Linear)    (Quad)   (Total)
    R1        3.43215  -0.02619   0.00000   0.00588   0.00588   3.43803
    R2        1.84133  -0.00062   0.00000   0.00015   0.00015   1.84148
    A1        1.64264   0.01715   0.00000   0.00143   0.00143   1.64407
         Item               Value     Threshold  Converged?
 Maximum Force            0.026187     0.000450     NO 
 RMS     Force            0.018075     0.000300     NO 
 Maximum Displacement     0.004192     0.001800     NO 
 RMS     Displacement     0.003343     0.001200     NO 
 Predicted change in Energy= 1.329742D-04
 GradGradGradGradGradGradGradGradGradGradGradGradGradGradGradGradGradGrad

                          Input orientation:                          
 ---------------------------------------------------------------------
 Center     Atomic      Atomic             Coordinates (Angstroms)
 Number     Number       Type             X           Y           Z
 ---------------------------------------------------------------------
      1          8           0        2.896483   -2.382062    2.627002
      2         17           0        2.574699   -1.901213    4.351878
      3          1           0        2.079377   -2.906751    2.545591
 ---------------------------------------------------------------------
                    Distance matrix (angstroms):
                    1          2          3
     1  O    0.000000
     2  Cl   1.819329   0.000000
     3  H    0.974468   2.125823   0.000000
 Stoichiometry    ClHO
 Framework group  CS[SG(ClHO)]
 Deg. of freedom     3
 Full point group                 CS      NOp   2
 Largest Abelian subgroup         CS      NOp   2
 Largest concise Abelian subgroup C1      NOp   1
                         Standard orientation:                         
 ---------------------------------------------------------------------
 Center     Atomic      Atomic             Coordinates (Angstroms)
 Number     Number       Type             X           Y           Z
 ---------------------------------------------------------------------
      1          8           0        0.037379    1.186817   -0.000000
      2         17           0        0.037379   -0.632511    0.000000
      3          1           0       -0.934474    1.258156    0.000000
 ---------------------------------------------------------------------
 Rotational constants (GHZ):         567.7174427          13.2677067          12.9647179
 Standard basis: SVP (5D, 7F)
 There are    29 symmetry adapted cartesian basis functions of A'  symmetry.
 There are    10 symmetry adapted cartesian basis functions of A"  symmetry.
 There are    27 symmetry adapted basis functions of A'  symmetry.
 There are    10 symmetry adapted basis functions of A"  symmetry.
    37 basis functions,    69 primitive gaussians,    39 cartesian basis functions
    13 alpha electrons       13 beta electrons
       nuclear repulsion energy        48.1336210961 Hartrees.
 NAtoms=    3 NActive=    3 NUniq=    3 SFac= 1.00D+00 NAtFMM=   60 NAOKFM=F Big=F
 Integral buffers will be    131072 words long.
 Raffenetti 2 integral format.
 Two-electron integral symmetry is turned on.
 Nuclear repulsion after empirical dispersion term =       48.1320069300 Hartrees.
 One-electron integrals computed using PRISM.
 NBasis=    37 RedAO= T EigKep=  3.97D-02  NBF=    27    10
 NBsUse=    37 1.00D-06 EigRej= -1.00D+00 NBFU=    27    10
 Initial guess from the checkpoint file:  "/tmp/Gau-20074.chk"
 B after Tr=     0.000000    0.000000   -0.000000
         Rot=    1.000000    0.000000   -0.000000    0.000081 Ang=   0.01 deg.
 Initial guess orbital symmetries:
       Occupied  (A') (A') (A') (A') (A') (A") (A') (A') (A') (A')
                 (A") (A') (A")
       Virtual   (A') (A') (A') (A') (A') (A") (A') (A') (A") (A')
                 (A") (A') (A") (A') (A') (A') (A") (A') (A') (A")
                 (A') (A') (A") (A')
 Keep R1 ints in memory in symmetry-blocked form, NReq=7153137.
 Requested convergence on RMS density matrix=1.00D-08 within 128 cycles.
 Requested convergence on MAX density matrix=1.00D-06.
 Requested convergence on             energy=1.00D-06.
 No special actions if energy rises.
 SCF Done:  E(RB3LYP) =  -535.756167076     A.U. after    8 cycles
            NFock=  8  Conv=0.39D-08     -V/T= 2.0028
 Calling FoFJK, ICntrl=      2127 FMM=F ISym2X=1 I1Cent= 0 IOpClX= 0 NMat=1 NMatS=1 NMatT=0.
 ***** Axes restored to original set *****
 -------------------------------------------------------------------
 Center     Atomic                   Forces (Hartrees/Bohr)
 Number     Number              X              Y              Z
 -------------------------------------------------------------------
      1        8          -0.011594792    0.006352458    0.034106925
      2       17           0.008912528   -0.004666849   -0.025664647
      3        1           0.002682265   -0.001685609   -0.008442278
 -------------------------------------------------------------------
 Cartesian Forces:  Max     0.034106925 RMS     0.015560884

 GradGradGradGradGradGradGradGradGradGradGradGradGradGradGradGradGradGrad
 Berny optimization.
 FormGI is forming the generalized inverse of G from B-inverse, IUseBI=4.
 Internal  Forces:  Max     0.027142315 RMS     0.018361358
 Search for a saddle point.
 Step number   8 out of a maximum of  100
 All quantities printed in internal units (Hartrees-Bohrs-Radians)
 Swapping is turned off.
 Update second derivatives using D2CorX and points    5    6    7    8
 The second derivative matrix:
                          R1        R2        A1
           R1           0.15058
           R2          -0.00958   0.51359
           A1           0.04913  -0.00073   0.20612
 ITU=  0  0  0  0
     Eigenvalues ---    0.12175   0.23468   0.51385
 Eigenvectors required to have negative eigenvalues:
                          R1        A1        R2
   1                   -0.86405   0.50300  -0.02020
 RFO step:  Lambda0=1.295564698D-01 Lambda=-1.84564015D-06.
 Linear search not attempted -- option 19 set.
 Iteration  1 RMS(Cart)=  0.00222089 RMS(Int)=  0.00000038
 Iteration  2 RMS(Cart)=  0.00000040 RMS(Int)=  0.00000000
 ClnCor:  largest displacement from symmetrization is 9.93D-16 for atom     3.
 Variable       Old X    -DE/DX   Delta X   Delta X   Delta X     New X
                                 (Linear)    (Quad)   (Total)
    R1        3.43803  -0.02714   0.00000   0.00383   0.00383   3.44187
    R2        1.84148  -0.00064   0.00000   0.00010   0.00010   1.84158
    A1        1.64407   0.01656   0.00000   0.00101   0.00101   1.64508
         Item               Value     Threshold  Converged?
 Maximum Force            0.027142     0.000450     NO 
 RMS     Force            0.018361     0.000300     NO 
 Maximum Displacement     0.002768     0.001800     NO 
 RMS     Displacement     0.002221     0.001200     NO 
 Predicted change in Energy= 8.872164D-05
 GradGradGradGradGradGradGradGradGradGradGradGradGradGradGradGradGradGrad

                          Input orientation:                          
 ---------------------------------------------------------------------
 Center     Atomic      Atomic             Coordinates (Angstroms)
 Number     Number       Type             X           Y           Z
 ---------------------------------------------------------------------
      1          8           0        2.896341   -2.382331    2.626532
      2         17           0        2.574895   -1.900522    4.353342
      3          1           0        2.079323   -2.907172    2.544596
 ---------------------------------------------------------------------
                    Distance matrix (angstroms):
                    1          2          3
     1  O    0.000000
     2  Cl   1.821357   0.000000
     3  H    0.974521   2.128497   0.000000
 Stoichiometry    ClHO
 Framework group  CS[SG(ClHO)]
 Deg. of freedom     3
 Full point group                 CS      NOp   2
 Largest Abelian subgroup         CS      NOp   2
 Largest concise Abelian subgroup C1      NOp   1
                         Standard orientation:                         
 ---------------------------------------------------------------------
 Center     Atomic      Atomic             Coordinates (Angstroms)
 Number     Number       Type             X           Y           Z
 ---------------------------------------------------------------------
      1          8           0        0.037378    1.188105   -0.000000
      2         17           0        0.037378   -0.633252    0.000000
      3          1           0       -0.934455    1.260433   -0.000000
 ---------------------------------------------------------------------
 Rotational constants (GHZ):         567.7761068          13.2373641          12.9357742
 Standard basis: SVP (5D, 7F)
 There are    29 symmetry adapted cartesian basis functions of A'  symmetry.
 There are    10 symmetry adapted cartesian basis functions of A"  symmetry.
 There are    27 symmetry adapted basis functions of A'  symmetry.
 There are    10 symmetry adapted basis functions of A"  symmetry.
    37 basis functions,    69 primitive gaussians,    39 cartesian basis functions
    13 alpha electrons       13 beta electrons
       nuclear repulsion energy        48.0840179321 Hartrees.
 NAtoms=    3 NActive=    3 NUniq=    3 SFac= 1.00D+00 NAtFMM=   60 NAOKFM=F Big=F
 Integral buffers will be    131072 words long.
 Raffenetti 2 integral format.
 Two-electron integral symmetry is turned on.
 Nuclear repulsion after empirical dispersion term =       48.0824039708 Hartrees.
 One-electron integrals computed using PRISM.
 NBasis=    37 RedAO= T EigKep=  3.98D-02  NBF=    27    10
 NBsUse=    37 1.00D-06 EigRej= -1.00D+00 NBFU=    27    10
 Initial guess from the checkpoint file:  "/tmp/Gau-20074.chk"
 B after Tr=    -0.000000    0.000000    0.000000
         Rot=    1.000000    0.000000   -0.000000    0.000054 Ang=   0.01 deg.
 Initial guess orbital symmetries:
       Occupied  (A') (A') (A') (A') (A') (A") (A') (A') (A') (A')
                 (A") (A') (A")
       Virtual   (A') (A') (A') (A') (A') (A") (A') (A') (A") (A')
                 (A") (A') (A") (A') (A') (A') (A") (A') (A') (A")
                 (A') (A') (A") (A')
 Keep R1 ints in memory in symmetry-blocked form, NReq=7153137.
 Requested convergence on RMS density matrix=1.00D-08 within 128 cycles.
 Requested convergence on MAX density matrix=1.00D-06.
 Requested convergence on             energy=1.00D-06.
 No special actions if energy rises.
 SCF Done:  E(RB3LYP) =  -535.756078373     A.U. after    8 cycles
            NFock=  8  Conv=0.26D-08     -V/T= 2.0028
 Calling FoFJK, ICntrl=      2127 FMM=F ISym2X=1 I1Cent= 0 IOpClX= 0 NMat=1 NMatS=1 NMatT=0.
 ***** Axes restored to original set *****
 -------------------------------------------------------------------
 Center     Atomic                   Forces (Hartrees/Bohr)
 Number     Number              X              Y              Z
 -------------------------------------------------------------------
      1        8          -0.011556096    0.006526661    0.034492476
      2       17           0.008909585   -0.004899115   -0.026253696
      3        1           0.002646511   -0.001627546   -0.008238780
 -------------------------------------------------------------------
 Cartesian Forces:  Max     0.034492476 RMS     0.015762264

 GradGradGradGradGradGradGradGradGradGradGradGradGradGradGradGradGradGrad
 Berny optimization.
 FormGI is forming the generalized inverse of G from B-inverse, IUseBI=4.
 Internal  Forces:  Max     0.027759553 RMS     0.018551588
 Search for a saddle point.
 Step number   9 out of a maximum of  100
 All quantities printed in internal units (Hartrees-Bohrs-Radians)
 Swapping is turned off.
 Update second derivatives using D2CorX and points    6    7    8    9
 The second derivative matrix:
                          R1        R2        A1
           R1           0.14859
           R2          -0.00959   0.51359
           A1           0.04799  -0.00075   0.20566
 ITU=  0  0  0  0
     Eigenvalues ---    0.12114   0.23286   0.51385
 Eigenvectors required to have negative eigenvalues:
                          R1        A1        R2
   1                   -0.86952   0.49348  -0.02030
 RFO step:  Lambda0=1.291303265D-01 Lambda=-5.61560157D-07.
 Linear search not attempted -- option 19 set.
 Iteration  1 RMS(Cart)=  0.00123968 RMS(Int)=  0.00000012
 Iteration  2 RMS(Cart)=  0.00000012 RMS(Int)=  0.00000000
 ClnCor:  largest displacement from symmetrization is 1.83D-15 for atom     2.
 Variable       Old X    -DE/DX   Delta X   Delta X   Delta X     New X
                                 (Linear)    (Quad)   (Total)
    R1        3.44187  -0.02776   0.00000   0.00212   0.00212   3.44398
    R2        1.84158  -0.00065   0.00000   0.00005   0.00005   1.84163
    A1        1.64508   0.01617   0.00000   0.00058   0.00058   1.64567
         Item               Value     Threshold  Converged?
 Maximum Force            0.027760     0.000450     NO 
 RMS     Force            0.018552     0.000300     NO 
 Maximum Displacement     0.001539     0.001800     YES
 RMS     Displacement     0.001240     0.001200     NO 
 Predicted change in Energy= 4.976068D-05
 GradGradGradGradGradGradGradGradGradGradGradGradGradGradGradGradGradGrad

                          Input orientation:                          
 ---------------------------------------------------------------------
 Center     Atomic      Atomic             Coordinates (Angstroms)
 Number     Number       Type             X           Y           Z
 ---------------------------------------------------------------------
      1          8           0        2.896258   -2.382480    2.626279
      2         17           0        2.575007   -1.900135    4.354157
      3          1           0        2.079294   -2.907410    2.544035
 ---------------------------------------------------------------------
                    Distance matrix (angstroms):
                    1          2          3
     1  O    0.000000
     2  Cl   1.822477   0.000000
     3  H    0.974549   2.129994   0.000000
 Stoichiometry    ClHO
 Framework group  CS[SG(ClHO)]
 Deg. of freedom     3
 Full point group                 CS      NOp   2
 Largest Abelian subgroup         CS      NOp   2
 Largest concise Abelian subgroup C1      NOp   1
                         Standard orientation:                         
 ---------------------------------------------------------------------
 Center     Atomic      Atomic             Coordinates (Angstroms)
 Number     Number       Type             X           Y           Z
 ---------------------------------------------------------------------
      1          8           0        0.037378    1.188816    0.000000
      2         17           0        0.037378   -0.633661   -0.000000
      3          1           0       -0.934441    1.261713    0.000000
 ---------------------------------------------------------------------
 Rotational constants (GHZ):         567.8123303          13.2206333          12.9198153
 Standard basis: SVP (5D, 7F)
 There are    29 symmetry adapted cartesian basis functions of A'  symmetry.
 There are    10 symmetry adapted cartesian basis functions of A"  symmetry.
 There are    27 symmetry adapted basis functions of A'  symmetry.
 There are    10 symmetry adapted basis functions of A"  symmetry.
    37 basis functions,    69 primitive gaussians,    39 cartesian basis functions
    13 alpha electrons       13 beta electrons
       nuclear repulsion energy        48.0566384353 Hartrees.
 NAtoms=    3 NActive=    3 NUniq=    3 SFac= 1.00D+00 NAtFMM=   60 NAOKFM=F Big=F
 Integral buffers will be    131072 words long.
 Raffenetti 2 integral format.
 Two-electron integral symmetry is turned on.
 Nuclear repulsion after empirical dispersion term =       48.0550245890 Hartrees.
 One-electron integrals computed using PRISM.
 NBasis=    37 RedAO= T EigKep=  3.98D-02  NBF=    27    10
 NBsUse=    37 1.00D-06 EigRej= -1.00D+00 NBFU=    27    10
 Initial guess from the checkpoint file:  "/tmp/Gau-20074.chk"
 B after Tr=     0.000000   -0.000000   -0.000000
         Rot=    1.000000   -0.000000   -0.000000    0.000031 Ang=   0.00 deg.
 Initial guess orbital symmetries:
       Occupied  (A') (A') (A') (A') (A') (A") (A') (A') (A') (A')
                 (A") (A') (A")
       Virtual   (A') (A') (A') (A') (A') (A") (A') (A') (A") (A')
                 (A") (A') (A") (A') (A') (A') (A") (A') (A') (A")
                 (A') (A') (A") (A')
 Keep R1 ints in memory in symmetry-blocked form, NReq=7153137.
 Requested convergence on RMS density matrix=1.00D-08 within 128 cycles.
 Requested convergence on MAX density matrix=1.00D-06.
 Requested convergence on             energy=1.00D-06.
 No special actions if energy rises.
 SCF Done:  E(RB3LYP) =  -535.756028617     A.U. after    7 cycles
            NFock=  7  Conv=0.69D-08     -V/T= 2.0028
 Calling FoFJK, ICntrl=      2127 FMM=F ISym2X=1 I1Cent= 0 IOpClX= 0 NMat=1 NMatS=1 NMatT=0.
 ***** Axes restored to original set *****
 -------------------------------------------------------------------
 Center     Atomic                   Forces (Hartrees/Bohr)
 Number     Number              X              Y              Z
 -------------------------------------------------------------------
      1        8          -0.011532698    0.006622709    0.034701873
      2       17           0.008906533   -0.005027560   -0.026577252
      3        1           0.002626165   -0.001595148   -0.008124621
 -------------------------------------------------------------------
 Cartesian Forces:  Max     0.034701873 RMS     0.015872713

 GradGradGradGradGradGradGradGradGradGradGradGradGradGradGradGradGradGrad
 Berny optimization.
 FormGI is forming the generalized inverse of G from B-inverse, IUseBI=4.
 Internal  Forces:  Max     0.028098584 RMS     0.018657991
 Search for a saddle point.
 Step number  10 out of a maximum of  100
 All quantities printed in internal units (Hartrees-Bohrs-Radians)
 Swapping is turned off.
 Update second derivatives using D2CorX and points    7    8    9   10
 The second derivative matrix:
                          R1        R2        A1
           R1           0.14738
           R2          -0.00959   0.51359
           A1           0.04731  -0.00076   0.20538
 ITU=  0  0  0  0
     Eigenvalues ---    0.12073   0.23177   0.51385
 Eigenvectors required to have negative eigenvalues:
                          R1        A1        R2
   1                   -0.87281   0.48763  -0.02036
 RFO step:  Lambda0=1.288332031D-01 Lambda=-2.07828465D-07.
 Linear search not attempted -- option 19 set.
 Iteration  1 RMS(Cart)=  0.00075955 RMS(Int)=  0.00000005
 Iteration  2 RMS(Cart)=  0.00000005 RMS(Int)=  0.00000000
 ClnCor:  largest displacement from symmetrization is 1.99D-15 for atom     3.
 Variable       Old X    -DE/DX   Delta X   Delta X   Delta X     New X
                                 (Linear)    (Quad)   (Total)
    R1        3.44398  -0.02810   0.00000   0.00129   0.00129   3.44527
    R2        1.84163  -0.00066   0.00000   0.00003   0.00003   1.84166
    A1        1.64567   0.01595   0.00000   0.00036   0.00036   1.64603
         Item               Value     Threshold  Converged?
 Maximum Force            0.028099     0.000450     NO 
 RMS     Force            0.018658     0.000300     NO 
 Maximum Displacement     0.000941     0.001800     YES
 RMS     Displacement     0.000760     0.001200     YES
 Predicted change in Energy= 3.055100D-05
 GradGradGradGradGradGradGradGradGradGradGradGradGradGradGradGradGradGrad

                          Input orientation:                          
 ---------------------------------------------------------------------
 Center     Atomic      Atomic             Coordinates (Angstroms)
 Number     Number       Type             X           Y           Z
 ---------------------------------------------------------------------
      1          8           0        2.896206   -2.382571    2.626127
      2         17           0        2.575078   -1.899898    4.354655
      3          1           0        2.079276   -2.907556    2.543689
 ---------------------------------------------------------------------
                    Distance matrix (angstroms):
                    1          2          3
     1  O    0.000000
     2  Cl   1.823158   0.000000
     3  H    0.974566   2.130913   0.000000
 Stoichiometry    ClHO
 Framework group  CS[SG(ClHO)]
 Deg. of freedom     3
 Full point group                 CS      NOp   2
 Largest Abelian subgroup         CS      NOp   2
 Largest concise Abelian subgroup C1      NOp   1
                         Standard orientation:                         
 ---------------------------------------------------------------------
 Center     Atomic      Atomic             Coordinates (Angstroms)
 Number     Number       Type             X           Y           Z
 ---------------------------------------------------------------------
      1          8           0        0.037377    1.189248   -0.000000
      2         17           0        0.037377   -0.633911    0.000000
      3          1           0       -0.934432    1.262501   -0.000000
 ---------------------------------------------------------------------
 Rotational constants (GHZ):         567.8360717          13.2104573          12.9101093
 Standard basis: SVP (5D, 7F)
 There are    29 symmetry adapted cartesian basis functions of A'  symmetry.
[...]
           R1           0.14657
           R2          -0.00960   0.51359
           A1           0.04682  -0.00077   0.20517
 ITU=  0  0  0  0
     Eigenvalues ---    0.12047   0.23100   0.51385
 Eigenvectors required to have negative eigenvalues:
                          R1        A1        R2
   1                   -0.87507   0.48357  -0.02042
 RFO step:  Lambda0=1.286800204D-01 Lambda= 0.00000000D+00.
 Linear search not attempted -- option 19 set.
 Iteration  1 RMS(Cart)=  0.00000001 RMS(Int)=  0.00000000
 ClnCor:  largest displacement from symmetrization is 1.60D-15 for atom     3.
 Variable       Old X    -DE/DX   Delta X   Delta X   Delta X     New X
                                 (Linear)    (Quad)   (Total)
    R1        3.44617  -0.02845   0.00000   0.00000   0.00000   3.44617
    R2        1.84169  -0.00066   0.00000   0.00000   0.00000   1.84169
    A1        1.64629   0.01572   0.00000  -0.00000  -0.00000   1.64629
         Item               Value     Threshold  Converged?
 Maximum Force            0.028447     0.000450     NO 
 RMS     Force            0.018769     0.000300     NO 
 Maximum Displacement     0.000000     0.001800     YES
 RMS     Displacement     0.000000     0.001200     YES
 Predicted change in Energy= 2.847933D-10
 GradGradGradGradGradGradGradGradGradGradGradGradGradGradGradGradGradGrad

                          Input orientation:                          
 ---------------------------------------------------------------------
 Center     Atomic      Atomic             Coordinates (Angstroms)
 Number     Number       Type             X           Y           Z
 ---------------------------------------------------------------------
      1          8           0        2.896170   -2.382635    2.626021
      2         17           0        2.575127   -1.899732    4.355003
      3          1           0        2.079263   -2.907658    2.543447
 ---------------------------------------------------------------------
                    Distance matrix (angstroms):
                    1          2          3
     1  O    0.000000
     2  Cl   1.823634   0.000000
     3  H    0.974579   2.131556   0.000000
 Stoichiometry    ClHO
 Framework group  CS[SG(ClHO)]
 Deg. of freedom     3
 Full point group                 CS      NOp   2
 Largest Abelian subgroup         CS      NOp   2
 Largest concise Abelian subgroup C1      NOp   1
                         Standard orientation:                         
 ---------------------------------------------------------------------
 Center     Atomic      Atomic             Coordinates (Angstroms)
 Number     Number       Type             X           Y           Z
 ---------------------------------------------------------------------
      1          8           0        0.037377    1.189549    0.000000
      2         17           0        0.037377   -0.634085   -0.000000
      3          1           0       -0.934426    1.263052    0.000000
 ---------------------------------------------------------------------
 Rotational constants (GHZ):         567.8519929          13.2033657          12.9033446
 Standard basis: SVP (5D, 7F)
 There are    29 symmetry adapted cartesian basis functions of A'  symmetry.
 There are    10 symmetry adapted cartesian basis functions of A"  symmetry.
 There are    27 symmetry adapted basis functions of A'  symmetry.
 There are    10 symmetry adapted basis functions of A"  symmetry.
    37 basis functions,    69 primitive gaussians,    39 cartesian basis functions
    13 alpha electrons       13 beta electrons
       nuclear repulsion energy        48.0283570512 Hartrees.
 NAtoms=    3 NActive=    3 NUniq=    3 SFac= 1.00D+00 NAtFMM=   60 NAOKFM=F Big=F
 Integral buffers will be    131072 words long.
 Raffenetti 2 integral format.
 Two-electron integral symmetry is turned on.
 Nuclear repulsion after empirical dispersion term =       48.0267433251 Hartrees.
 One-electron integrals computed using PRISM.
 NBasis=    37 RedAO= T EigKep=  3.99D-02  NBF=    27    10
 NBsUse=    37 1.00D-06 EigRej= -1.00D+00 NBFU=    27    10
 Initial guess from the checkpoint file:  "/tmp/Gau-20074.chk"
 B after Tr=    -0.000000   -0.000000    0.000000
         Rot=    1.000000   -0.000000    0.000000   -0.000000 Ang=   0.00 deg.
 Initial guess orbital symmetries:
       Occupied  (A') (A') (A') (A') (A') (A") (A') (A') (A') (A')
                 (A") (A') (A")
       Virtual   (A') (A') (A') (A') (A') (A") (A') (A') (A") (A')
                 (A") (A') (A") (A') (A') (A') (A") (A') (A') (A")
                 (A') (A') (A") (A')
 Keep R1 ints in memory in symmetry-blocked form, NReq=7153137.
 Requested convergence on RMS density matrix=1.00D-08 within 128 cycles.
 Requested convergence on MAX density matrix=1.00D-06.
 Requested convergence on             energy=1.00D-06.
 No special actions if energy rises.
 SCF Done:  E(RB3LYP) =  -535.755976602     A.U. after    1 cycles
            NFock=  1  Conv=0.90D-09     -V/T= 2.0028
 Calling FoFJK, ICntrl=      2127 FMM=F ISym2X=1 I1Cent= 0 IOpClX= 0 NMat=1 NMatS=1 NMatT=0.
 ***** Axes restored to original set *****
 -------------------------------------------------------------------
 Center     Atomic                   Forces (Hartrees/Bohr)
 Number     Number              X              Y              Z
 -------------------------------------------------------------------
      1        8          -0.011507429    0.006721592    0.034915633
      2       17           0.008902370   -0.005160358   -0.026910217
      3        1           0.002605059   -0.001561235   -0.008005416
 -------------------------------------------------------------------
 Cartesian Forces:  Max     0.034915633 RMS     0.015986292

 GradGradGradGradGradGradGradGradGradGradGradGradGradGradGradGradGradGrad
 Berny optimization.
 Internal  Forces:  Max     0.028447473 RMS     0.018768972
 Search for a saddle point.
 Step number  99 out of a maximum of  100
 All quantities printed in internal units (Hartrees-Bohrs-Radians)
 Swapping is turned off.
 Update second derivatives using D2CorX and points   99
 The second derivative matrix:
                          R1        R2        A1
           R1           0.14657
           R2          -0.00960   0.51359
           A1           0.04682  -0.00077   0.20517
 ITU=  0  0  0  0
     Eigenvalues ---    0.12047   0.23100   0.51385
 Eigenvectors required to have negative eigenvalues:
                          R1        A1        R2
   1                   -0.87507   0.48357  -0.02042
 RFO step:  Lambda0=1.286800199D-01 Lambda= 0.00000000D+00.
 Linear search not attempted -- option 19 set.
 Iteration  1 RMS(Cart)=  0.00000001 RMS(Int)=  0.00000000
 ClnCor:  largest displacement from symmetrization is 1.26D-15 for atom     1.
 Variable       Old X    -DE/DX   Delta X   Delta X   Delta X     New X
                                 (Linear)    (Quad)   (Total)
    R1        3.44617  -0.02845   0.00000   0.00000   0.00000   3.44617
    R2        1.84169  -0.00066   0.00000  -0.00000  -0.00000   1.84169
    A1        1.64629   0.01572   0.00000  -0.00000  -0.00000   1.64629
         Item               Value     Threshold  Converged?
 Maximum Force            0.028447     0.000450     NO 
 RMS     Force            0.018769     0.000300     NO 
 Maximum Displacement     0.000000     0.001800     YES
 RMS     Displacement     0.000000     0.001200     YES
 Predicted change in Energy= 4.135953D-10
 GradGradGradGradGradGradGradGradGradGradGradGradGradGradGradGradGradGrad

                          Input orientation:                          
 ---------------------------------------------------------------------
 Center     Atomic      Atomic             Coordinates (Angstroms)
 Number     Number       Type             X           Y           Z
 ---------------------------------------------------------------------
      1          8           0        2.896170   -2.382635    2.626021
      2         17           0        2.575127   -1.899732    4.355003
      3          1           0        2.079263   -2.907658    2.543447
 ---------------------------------------------------------------------
                    Distance matrix (angstroms):
                    1          2          3
     1  O    0.000000
     2  Cl   1.823634   0.000000
     3  H    0.974579   2.131556   0.000000
 Stoichiometry    ClHO
 Framework group  CS[SG(ClHO)]
 Deg. of freedom     3
 Full point group                 CS      NOp   2
 Largest Abelian subgroup         CS      NOp   2
 Largest concise Abelian subgroup C1      NOp   1
                         Standard orientation:                         
 ---------------------------------------------------------------------
 Center     Atomic      Atomic             Coordinates (Angstroms)
 Number     Number       Type             X           Y           Z
 ---------------------------------------------------------------------
      1          8           0        0.037377    1.189549   -0.000000
      2         17           0        0.037377   -0.634085    0.000000
      3          1           0       -0.934426    1.263052    0.000000
 ---------------------------------------------------------------------
 Rotational constants (GHZ):         567.8519998          13.2033656          12.9033445
 Standard basis: SVP (5D, 7F)
 There are    29 symmetry adapted cartesian basis functions of A'  symmetry.
 There are    10 symmetry adapted cartesian basis functions of A"  symmetry.
 There are    27 symmetry adapted basis functions of A'  symmetry.
 There are    10 symmetry adapted basis functions of A"  symmetry.
    37 basis functions,    69 primitive gaussians,    39 cartesian basis functions
    13 alpha electrons       13 beta electrons
       nuclear repulsion energy        48.0283569316 Hartrees.
 NAtoms=    3 NActive=    3 NUniq=    3 SFac= 1.00D+00 NAtFMM=   60 NAOKFM=F Big=F
 Integral buffers will be    131072 words long.
 Raffenetti 2 integral format.
 Two-electron integral symmetry is turned on.
 Nuclear repulsion after empirical dispersion term =       48.0267432055 Hartrees.
 One-electron integrals computed using PRISM.
 NBasis=    37 RedAO= T EigKep=  3.99D-02  NBF=    27    10
 NBsUse=    37 1.00D-06 EigRej= -1.00D+00 NBFU=    27    10
 Initial guess from the checkpoint file:  "/tmp/Gau-20074.chk"
 B after Tr=     0.000000   -0.000000   -0.000000
         Rot=    1.000000   -0.000000    0.000000    0.000000 Ang=   0.00 deg.
 Initial guess orbital symmetries:
       Occupied  (A') (A') (A') (A') (A') (A") (A') (A') (A') (A')
                 (A") (A') (A")
       Virtual   (A') (A') (A') (A') (A') (A") (A') (A') (A") (A')
                 (A") (A') (A") (A') (A') (A') (A") (A') (A') (A")
                 (A') (A') (A") (A')
 Keep R1 ints in memory in symmetry-blocked form, NReq=7153137.
 Requested convergence on RMS density matrix=1.00D-08 within 128 cycles.
 Requested convergence on MAX density matrix=1.00D-06.
 Requested convergence on             energy=1.00D-06.
 No special actions if energy rises.
 SCF Done:  E(RB3LYP) =  -535.755976601     A.U. after    1 cycles
            NFock=  1  Conv=0.20D-08     -V/T= 2.0028
 Calling FoFJK, ICntrl=      2127 FMM=F ISym2X=1 I1Cent= 0 IOpClX= 0 NMat=1 NMatS=1 NMatT=0.
 ***** Axes restored to original set *****
 -------------------------------------------------------------------
 Center     Atomic                   Forces (Hartrees/Bohr)
 Number     Number              X              Y              Z
 -------------------------------------------------------------------
      1        8          -0.011507414    0.006721605    0.034915641
      2       17           0.008902372   -0.005160359   -0.026910224
      3        1           0.002605042   -0.001561245   -0.008005417
 -------------------------------------------------------------------
 Cartesian Forces:  Max     0.034915641 RMS     0.015986295

 GradGradGradGradGradGradGradGradGradGradGradGradGradGradGradGradGradGrad
 Berny optimization.
 Internal  Forces:  Max     0.028447480 RMS     0.018768976
 Search for a saddle point.
 Step number 100 out of a maximum of  100
 All quantities printed in internal units (Hartrees-Bohrs-Radians)
 Swapping is turned off.
 Update second derivatives using D2CorX and points  100
 The second derivative matrix:
                          R1        R2        A1
           R1           0.14657
           R2          -0.00960   0.51359
           A1           0.04682  -0.00077   0.20517
 ITU=  0  0  0  0
     Eigenvalues ---    0.12047   0.23100   0.51385
 Eigenvectors required to have negative eigenvalues:
                          R1        A1        R2
   1                   -0.87507   0.48357  -0.02042
 RFO step:  Lambda0=1.286800228D-01 Lambda= 0.00000000D+00.
 Linear search not attempted -- option 19 set.
 Iteration  1 RMS(Cart)=  0.00000002 RMS(Int)=  0.00000000
 ClnCor:  largest displacement from symmetrization is 1.99D-15 for atom     1.
 Variable       Old X    -DE/DX   Delta X   Delta X   Delta X     New X
                                 (Linear)    (Quad)   (Total)
    R1        3.44617  -0.02845   0.00000   0.00000   0.00000   3.44617
    R2        1.84169  -0.00066   0.00000   0.00000   0.00000   1.84169
    A1        1.64629   0.01572   0.00000  -0.00000  -0.00000   1.64629
         Item               Value     Threshold  Converged?
 Maximum Force            0.028447     0.000450     NO 
 RMS     Force            0.018769     0.000300     NO 
 Maximum Displacement     0.000000     0.001800     YES
 RMS     Displacement     0.000000     0.001200     YES
 Predicted change in Energy= 8.797564D-10
 Optimization stopped.
    -- Number of steps exceeded,  NStep= 100
    -- Flag reset to prevent archiving.
                           ----------------------------
                           ! Non-Optimized Parameters !
                           ! (Angstroms and Degrees)  !
 --------------------------                            --------------------------
 ! Name  Definition              Value          Derivative Info.                !
 --------------------------------------------------------------------------------
 ! R1    R(1,2)                  1.8236         -DE/DX =   -0.0284              !
 ! R2    R(1,3)                  0.9746         -DE/DX =   -0.0007              !
 ! A1    A(2,1,3)               94.3254         -DE/DX =    0.0157              !
 --------------------------------------------------------------------------------
 GradGradGradGradGradGradGradGradGradGradGradGradGradGradGradGradGradGrad

                          Input orientation:                          
 ---------------------------------------------------------------------
 Center     Atomic      Atomic             Coordinates (Angstroms)
 Number     Number       Type             X           Y           Z
 ---------------------------------------------------------------------
      1          8           0        2.896170   -2.382635    2.626021
      2         17           0        2.575127   -1.899732    4.355003
      3          1           0        2.079263   -2.907658    2.543447
 ---------------------------------------------------------------------
                    Distance matrix (angstroms):
                    1          2          3
     1  O    0.000000
     2  Cl   1.823634   0.000000
     3  H    0.974579   2.131556   0.000000
 Stoichiometry    ClHO
 Framework group  CS[SG(ClHO)]
 Deg. of freedom     3
 Full point group                 CS      NOp   2
 Largest Abelian subgroup         CS      NOp   2
 Largest concise Abelian subgroup C1      NOp   1
                         Standard orientation:                         
 ---------------------------------------------------------------------
 Center     Atomic      Atomic             Coordinates (Angstroms)
 Number     Number       Type             X           Y           Z
 ---------------------------------------------------------------------
      1          8           0        0.037377    1.189549   -0.000000
      2         17           0        0.037377   -0.634085    0.000000
      3          1           0       -0.934426    1.263052   -0.000000
 ---------------------------------------------------------------------
 Rotational constants (GHZ):         567.8519998          13.2033656          12.9033445

 **********************************************************************

            Population analysis using the SCF density.

 **********************************************************************

 Orbital symmetries:
       Occupied  (A') (A') (A') (A') (A') (A") (A') (A') (A') (A')
                 (A") (A') (A")
       Virtual   (A') (A') (A') (A') (A') (A") (A') (A') (A") (A')
                 (A") (A') (A") (A') (A') (A') (A") (A') (A') (A")
                 (A') (A') (A") (A')
 The electronic state is 1-A'.
 Alpha  occ. eigenvalues -- -101.54339 -19.20641  -9.49428  -7.26757  -7.25154
 Alpha  occ. eigenvalues --   -7.25121  -1.02794  -0.79533  -0.50527  -0.43209
 Alpha  occ. eigenvalues --   -0.38720  -0.32147  -0.29018
 Alpha virt. eigenvalues --   -0.10561   0.05634   0.46345   0.55671   0.68528
 Alpha virt. eigenvalues --    0.69526   0.69960   0.75932   0.76135   0.83645
 Alpha virt. eigenvalues --    0.84141   0.92993   0.99726   1.00721   1.08551
 Alpha virt. eigenvalues --    1.37307   1.40286   1.51076   2.15581   2.60319
 Alpha virt. eigenvalues --    2.80368   2.91010   2.92408   3.63975
          Condensed to atoms (all electrons):
               1          2          3
     1  O    7.841288   0.134277   0.297643
     2  Cl   0.134277  16.822744  -0.019045
     3  H    0.297643  -0.019045   0.510218
 Mulliken charges:
               1
     1  O   -0.273208
     2  Cl   0.062024
     3  H    0.211184
 Sum of Mulliken charges =   0.00000
 Mulliken charges with hydrogens summed into heavy atoms:
               1
     1  O   -0.062024
     2  Cl   0.062024
 Electronic spatial extent (au):  <R**2>=            112.2756
 Charge=              0.0000 electrons
 Dipole moment (field-independent basis, Debye):
    X=             -1.6625    Y=             -0.0768    Z=             -0.0000  Tot=              1.6642
 Quadrupole moment (field-independent basis, Debye-Ang):
   XX=            -16.5213   YY=            -16.5966   ZZ=            -18.6688
   XY=             -2.3887   XZ=              0.0000   YZ=             -0.0000
 Traceless Quadrupole moment (field-independent basis, Debye-Ang):
   XX=              0.7409   YY=              0.6656   ZZ=             -1.4065
   XY=             -2.3887   XZ=              0.0000   YZ=             -0.0000
 Octapole moment (field-independent basis, Debye-Ang**2):
  XXX=             -2.2336  YYY=              0.0243  ZZZ=              0.0000  XYY=             -3.2768
  XXY=              3.2285  XXZ=             -0.0000  XZZ=             -0.2419  YZZ=              0.5719
  YYZ=             -0.0000  XYZ=              0.0000
 Hexadecapole moment (field-independent basis, Debye-Ang**3):
 XXXX=            -16.8627 YYYY=            -85.5035 ZZZZ=            -16.6994 XXXY=             -0.3972
 XXXZ=              0.0000 YYYX=             -2.5287 YYYZ=             -0.0000 ZZZX=              0.0000
 ZZZY=             -0.0000 XXYY=            -16.2008 XXZZ=             -5.9068 YYZZ=            -19.1966
 XXYZ=             -0.0000 YYXZ=              0.0000 ZZXY=              0.5144
 N-N= 4.802674320553D+01 E-N=-1.368950917377D+03  KE= 5.342655600747D+02
 Symmetry A'   KE= 4.835150625395D+02
 Symmetry A"   KE= 5.075049753520D+01


 GOD DOES NOT PLAY WITH DICE.
               -- A. EINSTEIN
 Error termination request processed by link 9999.
 Error termination via Lnk1e in /share/apps/g16.a03/g16/l9999.exe at Thu Mar  6 16:38:35 2025.
 Job cpu time:       0 days  0 hours 13 minutes 12.9 seconds.
 Elapsed time:       0 days  0 hours  1 minutes 43.0 seconds.
 File lengths (MBytes):  RWF=      6 Int=      0 D2E=      0 Chk=      1 Scr=      1
