70
 energy: -143.135159351872 gnorm: 0.104345135759 xtb: 6.6.1 (8d0f1dd)
O    -0.64545043    -1.45507668     2.96748914
H     0.20770982    -1.01758064     2.97475633
H    -1.29588114    -0.75061613     2.96375775
O    -3.45422649    -1.93378148    -2.01060332
H    -3.69689064    -2.45016293    -1.24001711
H    -2.70447807    -2.37921565    -2.40910524
O    -0.26197532    -5.28240808    -2.22010584
H     0.02322611    -5.86850679    -2.92330357
H    -0.49510033    -4.46929250    -2.67158579
O    -1.14407270     0.13973787    -1.19393288
H    -0.24060911     0.33802957    -0.94139990
H    -1.26878954    -0.73292895    -0.81678994
O    -3.09205206     1.33894155     0.46496170
H    -3.96808967     1.00087761     0.27102857
H    -2.47799655     0.91755984    -0.13895170
O     1.99290507    -1.15590662    -2.38110597
H     1.52685458    -1.58155616    -3.10287975
H     2.22644558    -0.33264858    -2.81359235
O    -1.06803623    -2.81652799    -0.73904172
H    -1.23383673    -3.74120438    -0.93093023
H    -0.19988082    -2.79289163    -0.33273384
O     0.40687226     0.57507547     4.65866892
H     0.70332837     0.28289211     5.52242863
H    -0.43955122     0.14406268     4.52778053
O    -1.31706354    -0.24512244    -4.50125734
H    -1.45294502    -0.19525315    -3.55342409
H    -1.17605727     0.67124267    -4.74565464
O    -0.43503060    -2.72708987    -3.44952220
H    -0.76312896    -2.11368429    -4.10938839
H    -0.38039386    -2.20426141    -2.64764719
O    -5.03055911     0.30238630    -2.05839887
Cl    -4.51725428     0.24163324    -3.68135587
H    -4.39167177    -0.32282185    -1.69573630
O     1.02916631     2.99991372     3.75910273
Cl     0.92497138     4.45197977     4.64330421
H     0.61192734     2.19707752     4.09369619
O     1.27761207    -1.91410824     0.20176413
Cl     2.34003771    -2.53870212     1.37747585
H     1.75885676    -1.65717791    -0.59383406
O    -2.00531480     1.05395213     2.86300916
Cl    -2.20025055     2.03148095     4.24416748
H    -2.50255949     1.31174024     2.07759138
C     5.74389422    -0.32243139     0.78943631
C     5.37070934     0.27702958     1.98614108
C     4.24701917     1.07398457     2.09510066
C     3.34390097     1.29131480     1.04913885
C     3.71538345     0.63799425    -0.12562440
C     4.83193198    -0.18033204    -0.25236512
H     5.96101530     0.20232944     2.88990750
H     4.13339331     1.62435595     3.02255743
C    -1.03723723     3.62439752     0.60383032
C    -1.58497353     3.51522172    -0.67677232
C    -1.83068739     4.11622468     1.64421490
C    -2.87085870     3.99683085    -0.88706145
H    -0.96463633     3.01632426    -1.40385493
C    -2.97966522     4.83952886     1.36899979
C    -3.52951955     4.71010452     0.10211697
H    -3.26528199     3.90271621    -1.89050946
H    -3.47821457     5.36497871     2.17282942
Cl     7.31086327    -1.04007893     0.60289217
Cl    -4.99951689     5.58686959    -0.23405379
N     2.17653969     2.04394238     1.25002317
H     2.00924805     2.43386244     2.16420621
C     1.08262049     2.22183576     0.41785190
O     0.87884361     1.65283618    -0.62806819
N     0.23445239     3.15437400     0.98286236
H     0.48968962     3.50626762     1.89218788
H    -1.38996796     4.12893007     2.63569310
H     3.06505575     0.73147818    -0.98020015
Cl     5.23435775    -0.83942200    -1.80446157
