 Entering Gaussian System, Link 0=g16
 Input=ts.gjf
 Output=ts.log
 Initial command:
 /share/apps/g16.a03/g16/l1.exe "/tmp/Gau-30672.inp" -scrdir="/tmp/"
 Entering Link 1 = /share/apps/g16.a03/g16/l1.exe PID=     30674.
  
 Copyright (c) 1988,1990,1992,1993,1995,1998,2003,2009,2016,
            Gaussian, Inc.  All Rights Reserved.
  
 This is part of the Gaussian(R) 16 program.  It is based on
 the Gaussian(R) 09 system (copyright 2009, Gaussian, Inc.),
 the Gaussian(R) 03 system (copyright 2003, Gaussian, Inc.),
 the Gaussian(R) 98 system (copyright 1998, Gaussian, Inc.),
 the Gaussian(R) 94 system (copyright 1995, Gaussian, Inc.),
 the Gaussian 92(TM) system (copyright 1992, Gaussian, Inc.),
 the Gaussian 90(TM) system (copyright 1990, Gaussian, Inc.),
 the Gaussian 88(TM) system (copyright 1988, Gaussian, Inc.),
 the Gaussian 86(TM) system (copyright 1986, Carnegie Mellon
 University), and the Gaussian 82(TM) system (copyright 1983,
 Carnegie Mellon University). Gaussian is a federally registered
 trademark of Gaussian, Inc.
  
 This software contains proprietary and confidential information,
 including trade secrets, belonging to Gaussian, Inc.
  
 This software is provided under written license and may be
 used, copied, transmitted, or stored only in accord with that
 written license.
  
 The following legend is applicable only to US Government
 contracts under FAR:
  
                    RESTRICTED RIGHTS LEGEND
  
 Use, reproduction and disclosure by the US Government is
 subject to restrictions as set forth in subparagraphs (a)
 and (c) of the Commercial Computer Software - Restricted
 Rights clause in FAR 52.227-19.
  
 Gaussian, Inc.
 340 Quinnipiac St., Bldg. 40, Wallingford CT 06492
  
  
 ---------------------------------------------------------------
 Warning -- This program may not be used in any manner that
 competes with the business of Gaussian, Inc. or will provide
 assistance to any competitor of Gaussian, Inc.  The licensee
 of this program is prohibited from giving any competitor of
 Gaussian, Inc. access to this program.  By using this program,
 the user acknowledges that Gaussian, Inc. is engaged in the
 business of creating and licensing software in the field of
 computational chemistry and represents and warrants to the
 licensee that it is not a competitor of Gaussian, Inc. and that
 it will not use this program in any manner prohibited above.
 ---------------------------------------------------------------
  

 Cite this work as:
 Gaussian 16, Revision A.03,
 M. J. Frisch, G. W. Trucks, H. B. Schlegel, G. E. Scuseria, 
 M. A. Robb, J. R. Cheeseman, G. Scalmani, V. Barone, 
 G. A. Petersson, H. Nakatsuji, X. Li, M. Caricato, A. V. Marenich, 
 J. Bloino, B. G. Janesko, R. Gomperts, B. Mennucci, H. P. Hratchian, 
 J. V. Ortiz, A. F. Izmaylov, J. L. Sonnenberg, D. Williams-Young, 
 F. Ding, F. Lipparini, F. Egidi, J. Goings, B. Peng, A. Petrone, 
 T. Henderson, D. Ranasinghe, V. G. Zakrzewski, J. Gao, N. Rega, 
 G. Zheng, W. Liang, M. Hada, M. Ehara, K. Toyota, R. Fukuda, 
 J. Hasegawa, M. Ishida, T. Nakajima, Y. Honda, O. Kitao, H. Nakai, 
 T. Vreven, K. Throssell, J. A. Montgomery, Jr., J. E. Peralta, 
 F. Ogliaro, M. J. Bearpark, J. J. Heyd, E. N. Brothers, K. N. Kudin, 
 V. N. Staroverov, T. A. Keith, R. Kobayashi, J. Normand, 
 K. Raghavachari, A. P. Rendell, J. C. Burant, S. S. Iyengar, 
 J. Tomasi, M. Cossi, J. M. Millam, M. Klene, C. Adamo, R. Cammi, 
 J. W. Ochterski, R. L. Martin, K. Morokuma, O. Farkas, 
 J. B. Foresman, and D. J. Fox, Gaussian, Inc., Wallingford CT, 2016.
 
 ******************************************
 Gaussian 16:  EM64L-G16RevA.03 25-Dec-2016
                 6-Mar-2025 
 ******************************************
 %nproc=8
 Will use up to    8 processors via shared memory.
 %mem=4000MB
 --------------------------------------------------------------------
 #opt=(noeigen,calcfc,ts,recalc=5,maxcyc=200) freq B3LYP/SVP em=GD3BJ
 --------------------------------------------------------------------
 1/5=1,6=200,10=4,11=1,18=20,26=3,38=1,71=5/1,3;
 2/9=110,12=2,17=6,18=5,40=1/2;
 3/5=18,7=101,11=2,25=1,30=1,71=2,74=-5,124=41,140=1/1,2,3;
 4//1;
 5/5=2,38=5/2;
 8/6=4,10=90,11=11/1;
 11/6=1,8=1,9=11,15=111,16=1/1,2,10;
 10/6=1,13=1/2;
 6/7=2,8=2,9=2,10=2,28=1/1;
 7/10=1,18=20,25=1/1,2,3,16;
 1/5=1,6=200,10=4,11=1,18=20,26=3,71=5/3(2);
 2/9=110/2;
 99//99;
 2/9=110/2;
 3/5=18,7=101,11=2,25=1,30=1,71=1,74=-5,124=41/1,2,3;
 4/5=5,16=3,69=1/1;
 5/5=2,38=5/2;
 7//1,2,3,16;
 1/5=1,6=200,11=1,18=20,26=3,71=5/3(-5);
 2/9=110/2;
 6/7=2,8=2,9=2,10=2,19=2,28=1/1;
 99/9=1/99;
 ----------
 ts-397.gjf
 ----------
 Symbolic Z-matrix:
 Charge =  0 Multiplicity = 1
 O                     2.35923   3.51557  -0.01063 
 Cl                    2.34676   4.02263  -1.73086 
 H                     1.77984   2.77878  -0.17105 
 

 GradGradGradGradGradGradGradGradGradGradGradGradGradGradGradGradGradGrad
 Berny optimization.
 Initialization pass.
                           ----------------------------
                           !    Initial Parameters    !
                           ! (Angstroms and Degrees)  !
 --------------------------                            --------------------------
 ! Name  Definition              Value          Derivative Info.                !
 --------------------------------------------------------------------------------
 ! R1    R(1,2)                  1.7934         calculate D2E/DX2 analytically  !
 ! R2    R(1,3)                  0.9509         calculate D2E/DX2 analytically  !
 ! A1    A(2,1,3)               93.0392         calculate D2E/DX2 analytically  !
 --------------------------------------------------------------------------------
 Trust Radius=3.00D-01 FncErr=1.00D-07 GrdErr=1.00D-06 EigMax=2.50D+02 EigMin=1.00D-04
 Number of steps in this run=    100 maximum allowed number of steps=    100.
 Search for a saddle point of order  1.
 GradGradGradGradGradGradGradGradGradGradGradGradGradGradGradGradGradGrad

                          Input orientation:                          
 ---------------------------------------------------------------------
 Center     Atomic      Atomic             Coordinates (Angstroms)
 Number     Number       Type             X           Y           Z
 ---------------------------------------------------------------------
      1          8           0        2.359225    3.515574   -0.010632
      2         17           0        2.346759    4.022633   -1.730862
      3          1           0        1.779839    2.778781   -0.171047
 ---------------------------------------------------------------------
                    Distance matrix (angstroms):
                    1          2          3
     1  O    0.000000
     2  Cl   1.793448   0.000000
     3  H    0.950940   2.074027   0.000000
 Stoichiometry    ClHO
 Framework group  CS[SG(ClHO)]
 Deg. of freedom     3
 Full point group                 CS      NOp   2
 Largest Abelian subgroup         CS      NOp   2
 Largest concise Abelian subgroup C1      NOp   1
                         Standard orientation:                         
 ---------------------------------------------------------------------
 Center     Atomic      Atomic             Coordinates (Angstroms)
 Number     Number       Type             X           Y           Z
 ---------------------------------------------------------------------
      1          8           0        0.036523    1.170700   -0.000000
      2         17           0        0.036523   -0.622748    0.000000
      3          1           0       -0.913079    1.221119   -0.000000
 ---------------------------------------------------------------------
 Rotational constants (GHZ):         593.7876088          13.6728717          13.3651193
 Standard basis: SVP (5D, 7F)
 There are    29 symmetry adapted cartesian basis functions of A'  symmetry.
 There are    10 symmetry adapted cartesian basis functions of A"  symmetry.
 There are    27 symmetry adapted basis functions of A'  symmetry.
 There are    10 symmetry adapted basis functions of A"  symmetry.
    37 basis functions,    69 primitive gaussians,    39 cartesian basis functions
    13 alpha electrons       13 beta electrons
       nuclear repulsion energy        48.9176285675 Hartrees.
 NAtoms=    3 NActive=    3 NUniq=    3 SFac= 1.00D+00 NAtFMM=   60 NAOKFM=F Big=F
 Integral buffers will be    131072 words long.
 Raffenetti 2 integral format.
 Two-electron integral symmetry is turned on.
 Nuclear repulsion after empirical dispersion term =       48.9160112055 Hartrees.
 One-electron integrals computed using PRISM.
 NBasis=    37 RedAO= T EigKep=  3.76D-02  NBF=    27    10
 NBsUse=    37 1.00D-06 EigRej= -1.00D+00 NBFU=    27    10
 ExpMin= 1.22D-01 ExpMax= 1.04D+04 ExpMxC= 1.57D+03 IAcc=3 IRadAn=         5 AccDes= 0.00D+00
 Harris functional with IExCor=  402 and IRadAn=       5 diagonalized for initial guess.
 HarFok:  IExCor=  402 AccDes= 0.00D+00 IRadAn=         5 IDoV= 1 UseB2=F ITyADJ=14
 ICtDFT=  3500011 ScaDFX=  1.000000  1.000000  1.000000  1.000000
 FoFCou: FMM=F IPFlag=           0 FMFlag=      100000 FMFlg1=           0
         NFxFlg=           0 DoJE=T BraDBF=F KetDBF=T FulRan=T
         wScrn=  0.000000 ICntrl=       500 IOpCl=  0 I1Cent=   200000004 NGrid=           0
         NMat0=    1 NMatS0=      1 NMatT0=    0 NMatD0=    1 NMtDS0=    0 NMtDT0=    0
 Petite list used in FoFCou.
 Initial guess orbital symmetries:
       Occupied  (A') (A') (A') (A') (A') (A") (A') (A') (A') (A')
                 (A") (A') (A")
       Virtual   (A') (A') (A') (A') (A') (A") (A') (A') (A") (A')
                 (A") (A') (A") (A') (A') (A') (A") (A') (A') (A")
                 (A') (A") (A') (A')
 The electronic state of the initial guess is 1-A'.
 Keep R1 ints in memory in symmetry-blocked form, NReq=7153137.
 Requested convergence on RMS density matrix=1.00D-08 within 128 cycles.
 Requested convergence on MAX density matrix=1.00D-06.
 Requested convergence on             energy=1.00D-06.
 No special actions if energy rises.
 Integral accuracy reduced to 1.0D-05 until final iterations.
 Initial convergence to 1.0D-05 achieved.  Increase integral accuracy.
 SCF Done:  E(RB3LYP) =  -535.756404178     A.U. after   12 cycles
            NFock= 12  Conv=0.62D-08     -V/T= 2.0026
 DoSCS=F DFT=T ScalE2(SS,OS)=  1.000000  1.000000
 Range of M.O.s used for correlation:     1    37
 NBasis=    37 NAE=    13 NBE=    13 NFC=     0 NFV=     0
 NROrb=     37 NOA=    13 NOB=    13 NVA=    24 NVB=    24
 Symmetrizing basis deriv contribution to polar:
 IMax=3 JMax=2 DiffMx= 0.00D+00
 G2DrvN: will do     4 centers at a time, making    1 passes.
 Calling FoFCou, ICntrl=  3107 FMM=F I1Cent=   0 AccDes= 0.00D+00.
 End of G2Drv F.D. properties file   721 does not exist.
 End of G2Drv F.D. properties file   722 does not exist.
 End of G2Drv F.D. properties file   788 does not exist.
          IDoAtm=111
          Differentiating once with respect to nuclear coordinates.
 Keep R1 ints in memory in symmetry-blocked form, NReq=7127942.
          There are    12 degrees of freedom in the 1st order CPHF.  IDoFFX=6 NUNeed=     0.
      6 vectors produced by pass  0 Test12= 2.60D-15 8.33D-09 XBig12= 7.69D-02 1.76D-01.
 AX will form     6 AO Fock derivatives at one time.
      6 vectors produced by pass  1 Test12= 2.60D-15 8.33D-09 XBig12= 3.03D-02 7.82D-02.
      6 vectors produced by pass  2 Test12= 2.60D-15 8.33D-09 XBig12= 9.81D-04 9.04D-03.
      6 vectors produced by pass  3 Test12= 2.60D-15 8.33D-09 XBig12= 3.07D-05 1.84D-03.
      6 vectors produced by pass  4 Test12= 2.60D-15 8.33D-09 XBig12= 2.57D-07 1.86D-04.
      6 vectors produced by pass  5 Test12= 2.60D-15 8.33D-09 XBig12= 8.62D-10 9.61D-06.
      3 vectors produced by pass  6 Test12= 2.60D-15 8.33D-09 XBig12= 1.10D-12 4.07D-07.
      1 vectors produced by pass  7 Test12= 2.60D-15 8.33D-09 XBig12= 1.55D-15 1.37D-08.
 InvSVY:  IOpt=1 It=  1 EMax= 2.22D-16
 Solved reduced A of dimension    40 with     6 vectors.
 End of Minotr F.D. properties file   721 does not exist.
 End of Minotr F.D. properties file   722 does not exist.
 End of Minotr F.D. properties file   788 does not exist.

 **********************************************************************

            Population analysis using the SCF density.

 **********************************************************************

 Orbital symmetries:
       Occupied  (A') (A') (A') (A') (A') (A") (A') (A') (A') (A')
                 (A") (A') (A")
       Virtual   (A') (A') (A') (A') (A') (A") (A') (A') (A") (A')
                 (A") (A') (A") (A') (A') (A') (A") (A') (A') (A")
                 (A') (A') (A") (A')
 The electronic state is 1-A'.
 Alpha  occ. eigenvalues -- -101.54317 -19.20338  -9.49453  -7.26779  -7.25175
 Alpha  occ. eigenvalues --   -7.25139  -1.04056  -0.79516  -0.51135  -0.43688
 Alpha  occ. eigenvalues --   -0.39203  -0.32097  -0.28834
 Alpha virt. eigenvalues --   -0.09621   0.06313   0.46393   0.57218   0.68368
 Alpha virt. eigenvalues --    0.69431   0.70246   0.75761   0.75996   0.83755
 Alpha virt. eigenvalues --    0.84174   0.92992   1.00017   1.01067   1.09217
 Alpha virt. eigenvalues --    1.37571   1.40376   1.51639   2.20806   2.60581
 Alpha virt. eigenvalues --    2.82240   2.93790   2.94789   3.66713
          Condensed to atoms (all electrons):
               1          2          3
     1  O    7.829274   0.128950   0.307517
     2  Cl   0.128950  16.825830  -0.020798
     3  H    0.307517  -0.020798   0.513558
 Mulliken charges:
               1
     1  O   -0.265741
     2  Cl   0.066018
     3  H    0.199723
 Sum of Mulliken charges =  -0.00000
 Mulliken charges with hydrogens summed into heavy atoms:
               1
     1  O   -0.066018
     2  Cl   0.066018
 APT charges:
               1
     1  O   -0.456737
     2  Cl   0.094143
     3  H    0.362594
 Sum of APT charges =  -0.00000
 APT charges with hydrogens summed into heavy atoms:
               1
     1  O   -0.094143
     2  Cl   0.094143
 Electronic spatial extent (au):  <R**2>=            109.7168
 Charge=             -0.0000 electrons
 Dipole moment (field-independent basis, Debye):
    X=             -1.6337    Y=             -0.1192    Z=              0.0000  Tot=              1.6380
 Quadrupole moment (field-independent basis, Debye-Ang):
   XX=            -16.5451   YY=            -16.7477   ZZ=            -18.6225
   XY=             -2.2829   XZ=              0.0000   YZ=              0.0000
 Traceless Quadrupole moment (field-independent basis, Debye-Ang):
   XX=              0.7600   YY=              0.5574   ZZ=             -1.3174
   XY=             -2.2829   XZ=              0.0000   YZ=              0.0000
 Octapole moment (field-independent basis, Debye-Ang**2):
  XXX=             -2.1472  YYY=             -0.2168  ZZZ=             -0.0000  XYY=             -3.0915
  XXY=              3.0970  XXZ=             -0.0000  XZZ=             -0.2519  YZZ=              0.6077
  YYZ=             -0.0000  XYZ=              0.0000
 Hexadecapole moment (field-independent basis, Debye-Ang**3):
 XXXX=            -16.7824 YYYY=            -83.3525 ZZZZ=            -16.6457 XXXY=             -0.3402
 XXXZ=              0.0000 YYYX=             -2.2809 YYYZ=              0.0000 ZZZX=             -0.0000
 ZZZY=              0.0000 XXYY=            -15.9613 XXZZ=             -5.8573 YYZZ=            -18.6826
 XXYZ=              0.0000 YYXZ=              0.0000 ZZXY=              0.4615
 N-N= 4.891601120546D+01 E-N=-1.370752594203D+03  KE= 5.343462291556D+02
 Symmetry A'   KE= 4.835938931839D+02
 Symmetry A"   KE= 5.075233597174D+01
  Exact polarizability:   0.000   0.000   0.000   0.000   0.000   0.000
 Approx polarizability:  14.332  -0.763  41.444   0.000  -0.000  10.104
 Calling FoFJK, ICntrl=    100147 FMM=F ISym2X=1 I1Cent= 0 IOpClX= 0 NMat=1 NMatS=1 NMatT=0.
 ***** Axes restored to original set *****
 -------------------------------------------------------------------
 Center     Atomic                   Forces (Hartrees/Bohr)
 Number     Number              X              Y              Z
 -------------------------------------------------------------------
      1        8           0.009279523    0.021084917   -0.027912328
      2       17           0.004299588   -0.000054207    0.019319467
      3        1          -0.013579111   -0.021030711    0.008592861
 -------------------------------------------------------------------
 Cartesian Forces:  Max     0.027912328 RMS     0.016336846
 FormGI is forming the generalized inverse of G from B-inverse, IUseBI=4.

 GradGradGradGradGradGradGradGradGradGradGradGradGradGradGradGradGradGrad
 Berny optimization.
 Internal  Forces:  Max     0.023155325 RMS     0.021723573
 Search for a saddle point.
 Step number   1 out of a maximum of  100
 All quantities printed in internal units (Hartrees-Bohrs-Radians)
 Swapping is turned off.
 Second derivative matrix not updated -- analytic derivatives used.
 The second derivative matrix:
                          R1        R2        A1
           R1           0.17256
           R2          -0.01009   0.59022
           A1           0.06171  -0.00043   0.19196
 ITU=  0
     Eigenvalues ---    0.11968   0.24460   0.59047
 Eigenvectors required to have negative eigenvalues:
                          R1        A1        R2
   1                   -0.76050   0.64915  -0.01571
 RFO step:  Lambda0=1.262460191D-01 Lambda=-1.07780276D-03.
 Linear search not attempted -- option 19 set.
 Iteration  1 RMS(Cart)=  0.02758498 RMS(Int)=  0.00013714
 Iteration  2 RMS(Cart)=  0.00018635 RMS(Int)=  0.00000002
 Iteration  3 RMS(Cart)=  0.00000001 RMS(Int)=  0.00000000
 ClnCor:  largest displacement from symmetrization is 2.68D-15 for atom     3.
 Variable       Old X    -DE/DX   Delta X   Delta X   Delta X     New X
                                 (Linear)    (Quad)   (Total)
    R1        3.38913  -0.01858   0.00000   0.05036   0.05036   3.43949
    R2        1.79702   0.02312   0.00000   0.04086   0.04086   1.83788
    A1        1.62384   0.02316   0.00000  -0.01182  -0.01182   1.61202
         Item               Value     Threshold  Converged?
 Maximum Force            0.023155     0.000450     NO 
 RMS     Force            0.021724     0.000300     NO 
 Maximum Displacement     0.027530     0.001800     NO 
 RMS     Displacement     0.027525     0.001200     NO 
 Predicted change in Energy= 9.322639D-04
 GradGradGradGradGradGradGradGradGradGradGradGradGradGradGradGradGradGrad

                          Input orientation:                          
 ---------------------------------------------------------------------
 Center     Atomic      Atomic             Coordinates (Angstroms)
 Number     Number       Type             X           Y           Z
 ---------------------------------------------------------------------
      1          8           0        2.365342    3.520007    0.002045
      2         17           0        2.347974    4.028718   -1.745431
      3          1           0        1.772507    2.768263   -0.169156
 ---------------------------------------------------------------------
                    Distance matrix (angstroms):
                    1          2          3
     1  O    0.000000
     2  Cl   1.820099   0.000000
     3  H    0.972564   2.098702   0.000000
 Stoichiometry    ClHO
 Framework group  CS[SG(ClHO)]
 Deg. of freedom     3
 Full point group                 CS      NOp   2
 Largest Abelian subgroup         CS      NOp   2
 Largest concise Abelian subgroup C1      NOp   1
                         Standard orientation:                         
 ---------------------------------------------------------------------
 Center     Atomic      Atomic             Coordinates (Angstroms)
 Number     Number       Type             X           Y           Z
 ---------------------------------------------------------------------
      1          8           0        0.037375    1.188523   -0.000000
      2         17           0        0.037375   -0.631576    0.000000
      3          1           0       -0.934363    1.228605   -0.000000
 ---------------------------------------------------------------------
 Rotational constants (GHZ):         566.6213782          13.2852825          12.9809253
 Standard basis: SVP (5D, 7F)
 There are    29 symmetry adapted cartesian basis functions of A'  symmetry.
 There are    10 symmetry adapted cartesian basis functions of A"  symmetry.
 There are    27 symmetry adapted basis functions of A'  symmetry.
 There are    10 symmetry adapted basis functions of A"  symmetry.
    37 basis functions,    69 primitive gaussians,    39 cartesian basis functions
    13 alpha electrons       13 beta electrons
       nuclear repulsion energy        48.1800701367 Hartrees.
 NAtoms=    3 NActive=    3 NUniq=    3 SFac= 1.00D+00 NAtFMM=   60 NAOKFM=F Big=F
 Integral buffers will be    131072 words long.
 Raffenetti 2 integral format.
 Two-electron integral symmetry is turned on.
 Nuclear repulsion after empirical dispersion term =       48.1784544813 Hartrees.
 One-electron integrals computed using PRISM.
 NBasis=    37 RedAO= T EigKep=  3.95D-02  NBF=    27    10
 NBsUse=    37 1.00D-06 EigRej= -1.00D+00 NBFU=    27    10
 Initial guess from the checkpoint file:  "/tmp/Gau-30674.chk"
 B after Tr=     0.000000   -0.000000   -0.000000
         Rot=    1.000000   -0.000000    0.000000   -0.000493 Ang=  -0.06 deg.
 Initial guess orbital symmetries:
       Occupied  (A') (A') (A') (A') (A') (A") (A') (A') (A') (A')
                 (A") (A') (A")
       Virtual   (A') (A') (A') (A') (A') (A") (A') (A') (A") (A')
                 (A") (A') (A") (A') (A') (A') (A") (A') (A') (A")
                 (A') (A') (A") (A')
 ExpMin= 1.22D-01 ExpMax= 1.04D+04 ExpMxC= 1.57D+03 IAcc=2 IRadAn=         4 AccDes= 0.00D+00
 Harris functional with IExCor=  402 and IRadAn=       4 diagonalized for initial guess.
 HarFok:  IExCor=  402 AccDes= 0.00D+00 IRadAn=         4 IDoV= 1 UseB2=F ITyADJ=14
 ICtDFT=  3500011 ScaDFX=  1.000000  1.000000  1.000000  1.000000
 FoFCou: FMM=F IPFlag=           0 FMFlag=      100000 FMFlg1=           0
         NFxFlg=           0 DoJE=T BraDBF=F KetDBF=T FulRan=T
         wScrn=  0.000000 ICntrl=       500 IOpCl=  0 I1Cent=   200000004 NGrid=           0
         NMat0=    1 NMatS0=      1 NMatT0=    0 NMatD0=    1 NMtDS0=    0 NMtDT0=    0
 Petite list used in FoFCou.
 Keep R1 ints in memory in symmetry-blocked form, NReq=7153137.
 Requested convergence on RMS density matrix=1.00D-08 within 128 cycles.
 Requested convergence on MAX density matrix=1.00D-06.
 Requested convergence on             energy=1.00D-06.
 No special actions if energy rises.
 Integral accuracy reduced to 1.0D-05 until final iterations.
 Initial convergence to 1.0D-05 achieved.  Increase integral accuracy.
 SCF Done:  E(RB3LYP) =  -535.755503897     A.U. after   11 cycles
            NFock= 11  Conv=0.34D-08     -V/T= 2.0028
 Calling FoFJK, ICntrl=      2127 FMM=F ISym2X=1 I1Cent= 0 IOpClX= 0 NMat=1 NMatS=1 NMatT=0.
 ***** Axes restored to original set *****
 -------------------------------------------------------------------
 Center     Atomic                   Forces (Hartrees/Bohr)
 Number     Number              X              Y              Z
 -------------------------------------------------------------------
      1        8          -0.003919810    0.006123241   -0.037554054
      2       17           0.004215490   -0.002194401    0.025971569
      3        1          -0.000295679   -0.003928840    0.011582485
 -------------------------------------------------------------------
 Cartesian Forces:  Max     0.037554054 RMS     0.016020651

 GradGradGradGradGradGradGradGradGradGradGradGradGradGradGradGradGradGrad
 Berny optimization.
 FormGI is forming the generalized inverse of G from B-inverse, IUseBI=4.
 Internal  Forces:  Max     0.025589171 RMS     0.019638652
 Search for a saddle point.
 Step number   2 out of a maximum of  100
 All quantities printed in internal units (Hartrees-Bohrs-Radians)
 Swapping is turned off.
 Update second derivatives using D2CorX and points    1    2
 The second derivative matrix:
                          R1        R2        A1
           R1           0.17064
           R2          -0.02109   0.56278
           A1           0.06086  -0.00040   0.19226
 ITU=  0  0
     Eigenvalues ---    0.11907   0.24267   0.56395
 Eigenvectors required to have negative eigenvalues:
                          R1        A1        R2
   1                   -0.76853   0.63881  -0.03594
 RFO step:  Lambda0=1.280522023D-01 Lambda=-1.36412455D-05.
 Linear search not attempted -- option 19 set.
 Iteration  1 RMS(Cart)=  0.00361827 RMS(Int)=  0.00000090
 Iteration  2 RMS(Cart)=  0.00000121 RMS(Int)=  0.00000000
 Iteration  3 RMS(Cart)=  0.00000000 RMS(Int)=  0.00000000
 ClnCor:  largest displacement from symmetrization is 1.23D-15 for atom     1.
 Variable       Old X    -DE/DX   Delta X   Delta X   Delta X     New X
                                 (Linear)    (Quad)   (Total)
    R1        3.43949  -0.02559   0.00000   0.00669   0.00669   3.44618
    R2        1.83788   0.00118   0.00000   0.00455   0.00455   1.84243
    A1        1.61202   0.02238   0.00000  -0.00068  -0.00068   1.61134
         Item               Value     Threshold  Converged?
 Maximum Force            0.025589     0.000450     NO 
 RMS     Force            0.019639     0.000300     NO 
 Maximum Displacement     0.003898     0.001800     NO 
 RMS     Displacement     0.003618     0.001200     NO 
 Predicted change in Energy= 1.900477D-04
 GradGradGradGradGradGradGradGradGradGradGradGradGradGradGradGradGradGrad

                          Input orientation:                          
 ---------------------------------------------------------------------
 Center     Atomic      Atomic             Coordinates (Angstroms)
 Number     Number       Type             X           Y           Z
 ---------------------------------------------------------------------
      1          8           0        2.365945    3.520386    0.003487
      2         17           0        2.348250    4.029721   -1.747494
      3          1           0        1.771628    2.766881   -0.168535
 ---------------------------------------------------------------------
                    Distance matrix (angstroms):
                    1          2          3
     1  O    0.000000
     2  Cl   1.823642   0.000000
     3  H    0.974974   2.102467   0.000000
 Stoichiometry    ClHO
 Framework group  CS[SG(ClHO)]
 Deg. of freedom     3
 Full point group                 CS      NOp   2
 Largest Abelian subgroup         CS      NOp   2
 Largest concise Abelian subgroup C1      NOp   1
                         Standard orientation:                         
 ---------------------------------------------------------------------
 Center     Atomic      Atomic             Coordinates (Angstroms)
 Number     Number       Type             X           Y           Z
 ---------------------------------------------------------------------
      1          8           0        0.037468    1.190861    0.000000
      2         17           0        0.037468   -0.632780   -0.000000
      3          1           0       -0.936705    1.230376    0.000000
 ---------------------------------------------------------------------
 Rotational constants (GHZ):         563.7676719          13.2342824          12.9307371
 Standard basis: SVP (5D, 7F)
 There are    29 symmetry adapted cartesian basis functions of A'  symmetry.
 There are    10 symmetry adapted cartesian basis functions of A"  symmetry.
 There are    27 symmetry adapted basis functions of A'  symmetry.
 There are    10 symmetry adapted basis functions of A"  symmetry.
    37 basis functions,    69 primitive gaussians,    39 cartesian basis functions
    13 alpha electrons       13 beta electrons
       nuclear repulsion energy        48.0848184820 Hartrees.
 NAtoms=    3 NActive=    3 NUniq=    3 SFac= 1.00D+00 NAtFMM=   60 NAOKFM=F Big=F
 Integral buffers will be    131072 words long.
 Raffenetti 2 integral format.
 Two-electron integral symmetry is turned on.
 Nuclear repulsion after empirical dispersion term =       48.0832030835 Hartrees.
 One-electron integrals computed using PRISM.
 NBasis=    37 RedAO= T EigKep=  3.98D-02  NBF=    27    10
 NBsUse=    37 1.00D-06 EigRej= -1.00D+00 NBFU=    27    10
 Initial guess from the checkpoint file:  "/tmp/Gau-30674.chk"
 B after Tr=     0.000000    0.000000   -0.000000
         Rot=    1.000000   -0.000000    0.000000   -0.000031 Ang=  -0.00 deg.
 Initial guess orbital symmetries:
       Occupied  (A') (A') (A') (A') (A') (A") (A') (A') (A') (A')
                 (A") (A') (A")
       Virtual   (A') (A') (A') (A') (A') (A") (A') (A') (A") (A')
                 (A") (A') (A") (A') (A') (A') (A") (A') (A') (A")
                 (A') (A') (A") (A')
 Keep R1 ints in memory in symmetry-blocked form, NReq=7153137.
 Requested convergence on RMS density matrix=1.00D-08 within 128 cycles.
 Requested convergence on MAX density matrix=1.00D-06.
 Requested convergence on             energy=1.00D-06.
 No special actions if energy rises.
 SCF Done:  E(RB3LYP) =  -535.755314539     A.U. after    8 cycles
            NFock=  8  Conv=0.40D-08     -V/T= 2.0028
 Calling FoFJK, ICntrl=      2127 FMM=F ISym2X=1 I1Cent= 0 IOpClX= 0 NMat=1 NMatS=1 NMatT=0.
 ***** Axes restored to original set *****
 -------------------------------------------------------------------
 Center     Atomic                   Forces (Hartrees/Bohr)
 Number     Number              X              Y              Z
 -------------------------------------------------------------------
      1        8          -0.005234423    0.004671522   -0.038640470
      2       17           0.004174594   -0.002511445    0.026830399
      3        1           0.001059829   -0.002160077    0.011810071
 -------------------------------------------------------------------
 Cartesian Forces:  Max     0.038640470 RMS     0.016435666

 GradGradGradGradGradGradGradGradGradGradGradGradGradGradGradGradGradGrad
 Berny optimization.
 FormGI is forming the generalized inverse of G from B-inverse, IUseBI=4.
 Internal  Forces:  Max     0.026503654 RMS     0.019940001
 Search for a saddle point.
 Step number   3 out of a maximum of  100
 All quantities printed in internal units (Hartrees-Bohrs-Radians)
 Swapping is turned off.
 Update second derivatives using D2CorX and points    1    2    3
 The second derivative matrix:
                          R1        R2        A1
           R1           0.16548
           R2          -0.03349   0.54047
           A1           0.05971  -0.00169   0.19230
 ITU=  0  0  0
     Eigenvalues ---    0.11619   0.23848   0.54358
 Eigenvectors required to have negative eigenvalues:
                          R1        A1        R2
   1                   -0.78598   0.61537  -0.05959
 RFO step:  Lambda0=1.256674690D-01 Lambda=-7.06399452D-06.
 Linear search not attempted -- option 19 set.
 Iteration  1 RMS(Cart)=  0.00365089 RMS(Int)=  0.00000057
 Iteration  2 RMS(Cart)=  0.00000073 RMS(Int)=  0.00000000
 ClnCor:  largest displacement from symmetrization is 2.05D-15 for atom     3.
 Variable       Old X    -DE/DX   Delta X   Delta X   Delta X     New X
                                 (Linear)    (Quad)   (Total)
    R1        3.44618  -0.02650   0.00000   0.00679   0.00679   3.45297
    R2        1.84243  -0.00106   0.00000   0.00233   0.00233   1.84477
    A1        1.61134   0.02212   0.00000   0.00062   0.00062   1.61196
         Item               Value     Threshold  Converged?
 Maximum Force            0.026504     0.000450     NO 
 RMS     Force            0.019940     0.000300     NO 
 Maximum Displacement     0.004268     0.001800     NO 
 RMS     Displacement     0.003651     0.001200     NO 
 Predicted change in Energy= 1.738308D-04
 GradGradGradGradGradGradGradGradGradGradGradGradGradGradGradGradGradGrad

                          Input orientation:                          
 ---------------------------------------------------------------------
 Center     Atomic      Atomic             Coordinates (Angstroms)
 Number     Number       Type             X           Y           Z
 ---------------------------------------------------------------------
      1          8           0        2.366098    3.520265    0.004567
      2         17           0        2.348685    4.030998   -1.749752
      3          1           0        1.771040    2.765725   -0.167357
 ---------------------------------------------------------------------
                    Distance matrix (angstroms):
                    1          2          3
     1  O    0.000000
     2  Cl   1.827236   0.000000
     3  H    0.976208   2.106791   0.000000
 Stoichiometry    ClHO
 Framework group  CS[SG(ClHO)]
 Deg. of freedom     3
 Full point group                 CS      NOp   2
 Largest Abelian subgroup         CS      NOp   2
 Largest concise Abelian subgroup C1      NOp   1
                         Standard orientation:                         
 ---------------------------------------------------------------------
 Center     Atomic      Atomic             Coordinates (Angstroms)
 Number     Number       Type             X           Y           Z
 ---------------------------------------------------------------------
      1          8           0        0.037515    1.193186    0.000000
      2         17           0        0.037515   -0.634050   -0.000000
      3          1           0       -0.937867    1.233355   -0.000000
 ---------------------------------------------------------------------
 Rotational constants (GHZ):         562.3929481          13.1817765          12.8798883
 Standard basis: SVP (5D, 7F)
 There are    29 symmetry adapted cartesian basis functions of A'  symmetry.
 There are    10 symmetry adapted cartesian basis functions of A"  symmetry.
 There are    27 symmetry adapted basis functions of A'  symmetry.
 There are    10 symmetry adapted basis functions of A"  symmetry.
    37 basis functions,    69 primitive gaussians,    39 cartesian basis functions
    13 alpha electrons       13 beta electrons
       nuclear repulsion energy        47.9929276485 Hartrees.
 NAtoms=    3 NActive=    3 NUniq=    3 SFac= 1.00D+00 NAtFMM=   60 NAOKFM=F Big=F
 Integral buffers will be    131072 words long.
 Raffenetti 2 integral format.
 Two-electron integral symmetry is turned on.
 Nuclear repulsion after empirical dispersion term =       47.9913125524 Hartrees.
 One-electron integrals computed using PRISM.
 NBasis=    37 RedAO= T EigKep=  4.00D-02  NBF=    27    10
 NBsUse=    37 1.00D-06 EigRej= -1.00D+00 NBFU=    27    10
 Initial guess from the checkpoint file:  "/tmp/Gau-30674.chk"
 B after Tr=     0.000000   -0.000000    0.000000
         Rot=    1.000000    0.000000   -0.000000    0.000034 Ang=   0.00 deg.
 Initial guess orbital symmetries:
       Occupied  (A') (A') (A') (A') (A') (A") (A') (A') (A') (A')
                 (A") (A') (A")
       Virtual   (A') (A') (A') (A') (A') (A") (A') (A') (A") (A')
                 (A") (A') (A") (A') (A') (A') (A") (A') (A') (A")
                 (A') (A') (A") (A')
 Keep R1 ints in memory in symmetry-blocked form, NReq=7153137.
 Requested convergence on RMS density matrix=1.00D-08 within 128 cycles.
 Requested convergence on MAX density matrix=1.00D-06.
 Requested convergence on             energy=1.00D-06.
 No special actions if energy rises.
 SCF Done:  E(RB3LYP) =  -535.755140886     A.U. after    8 cycles
            NFock=  8  Conv=0.47D-08     -V/T= 2.0028
 Calling FoFJK, ICntrl=      2127 FMM=F ISym2X=1 I1Cent= 0 IOpClX= 0 NMat=1 NMatS=1 NMatT=0.
 ***** Axes restored to original set *****
 -------------------------------------------------------------------
 Center     Atomic                   Forces (Hartrees/Bohr)
 Number     Number              X              Y              Z
 -------------------------------------------------------------------
      1        8          -0.005806697    0.004153310   -0.039486850
      2       17           0.004083041   -0.002919002    0.027760865
      3        1           0.001723656   -0.001234308    0.011725985
 -------------------------------------------------------------------
 Cartesian Forces:  Max     0.039486850 RMS     0.016826004

 GradGradGradGradGradGradGradGradGradGradGradGradGradGradGradGradGradGrad
 Berny optimization.
 FormGI is forming the generalized inverse of G from B-inverse, IUseBI=4.
 Internal  Forces:  Max     0.027508209 RMS     0.020237250
 Search for a saddle point.
 Step number   4 out of a maximum of  100
 All quantities printed in internal units (Hartrees-Bohrs-Radians)
 Swapping is turned off.
 Update second derivatives using D2CorX and points    1    2    3    4
 The second derivative matrix:
                          R1        R2        A1
           R1           0.15235
           R2          -0.02815   0.55496
           A1           0.05738  -0.00248   0.19167
 ITU=  0  0  0  0
     Eigenvalues ---    0.11031   0.23163   0.55704
 Eigenvectors required to have negative eigenvalues:
                          R1        A1        R2
   1                   -0.81691   0.57472  -0.04852
 RFO step:  Lambda0=1.204770871D-01 Lambda=-1.49166721D-05.
 Linear search not attempted -- option 19 set.
 Iteration  1 RMS(Cart)=  0.00585020 RMS(Int)=  0.00000219
 Iteration  2 RMS(Cart)=  0.00000263 RMS(Int)=  0.00000000
 Iteration  3 RMS(Cart)=  0.00000000 RMS(Int)=  0.00000000
 ClnCor:  largest displacement from symmetrization is 1.67D-15 for atom     3.
 Variable       Old X    -DE/DX   Delta X   Delta X   Delta X     New X
                                 (Linear)    (Quad)   (Total)
    R1        3.45297  -0.02751   0.00000   0.01106   0.01106   3.46403
    R2        1.84477  -0.00216   0.00000  -0.00019  -0.00019   1.84458
    A1        1.61196   0.02162   0.00000   0.00190   0.00190   1.61385
         Item               Value     Threshold  Converged?
 Maximum Force            0.027508     0.000450     NO 
 RMS     Force            0.020237     0.000300     NO 
 Maximum Displacement     0.007010     0.001800     NO 
 RMS     Displacement     0.005852     0.001200     NO 
 Predicted change in Energy= 2.736748D-04
 GradGradGradGradGradGradGradGradGradGradGradGradGradGradGradGradGradGrad

                          Input orientation:                          
 ---------------------------------------------------------------------
 Center     Atomic      Atomic             Coordinates (Angstroms)
 Number     Number       Type             X           Y           Z
 ---------------------------------------------------------------------
      1          8           0        2.365677    3.519245    0.006038
      2         17           0        2.349440    4.033153   -1.753462
      3          1           0        1.770706    2.764590   -0.165117
 ---------------------------------------------------------------------
                    Distance matrix (angstroms):
                    1          2          3
     1  O    0.000000
     2  Cl   1.833086   0.000000
     3  H    0.976109   2.113533   0.000000
 Stoichiometry    ClHO
 Framework group  CS[SG(ClHO)]
 Deg. of freedom     3
 Full point group                 CS      NOp   2
 Largest Abelian subgroup         CS      NOp   2
 Largest concise Abelian subgroup C1      NOp   1
                         Standard orientation:                         
 ---------------------------------------------------------------------
 Center     Atomic      Atomic             Coordinates (Angstroms)
 Number     Number       Type             X           Y           Z
 ---------------------------------------------------------------------
      1          8           0        0.037508    1.196941   -0.000000
      2         17           0        0.037508   -0.636146    0.000000
      3          1           0       -0.937696    1.238954   -0.000000
 ---------------------------------------------------------------------
 Rotational constants (GHZ):         562.6592298          13.0963319          12.7984383
 Standard basis: SVP (5D, 7F)
 There are    29 symmetry adapted cartesian basis functions of A'  symmetry.
 There are    10 symmetry adapted cartesian basis functions of A"  symmetry.
 There are    27 symmetry adapted basis functions of A'  symmetry.
 There are    10 symmetry adapted basis functions of A"  symmetry.
    37 basis functions,    69 primitive gaussians,    39 cartesian basis functions
    13 alpha electrons       13 beta electrons
       nuclear repulsion energy        47.8540377708 Hartrees.
 NAtoms=    3 NActive=    3 NUniq=    3 SFac= 1.00D+00 NAtFMM=   60 NAOKFM=F Big=F
 Integral buffers will be    131072 words long.
 Raffenetti 2 integral format.
 Two-electron integral symmetry is turned on.
 Nuclear repulsion after empirical dispersion term =       47.8524231798 Hartrees.
 One-electron integrals computed using PRISM.
 NBasis=    37 RedAO= T EigKep=  4.03D-02  NBF=    27    10
 NBsUse=    37 1.00D-06 EigRej= -1.00D+00 NBFU=    27    10
 Initial guess from the checkpoint file:  "/tmp/Gau-30674.chk"
 B after Tr=    -0.000000    0.000000    0.000000
         Rot=    1.000000    0.000000    0.000000    0.000137 Ang=   0.02 deg.
 Initial guess orbital symmetries:
       Occupied  (A') (A') (A') (A') (A') (A") (A') (A') (A') (A')
                 (A") (A') (A")
       Virtual   (A') (A') (A') (A') (A') (A") (A') (A') (A") (A')
                 (A") (A') (A") (A') (A') (A') (A") (A') (A') (A")
                 (A') (A') (A") (A')
 Keep R1 ints in memory in symmetry-blocked form, NReq=7153137.
 Requested convergence on RMS density matrix=1.00D-08 within 128 cycles.
 Requested convergence on MAX density matrix=1.00D-06.
 Requested convergence on             energy=1.00D-06.
 No special actions if energy rises.
 SCF Done:  E(RB3LYP) =  -535.754867883     A.U. after    8 cycles
            NFock=  8  Conv=0.68D-08     -V/T= 2.0028
 Calling FoFJK, ICntrl=      2127 FMM=F ISym2X=1 I1Cent= 0 IOpClX= 0 NMat=1 NMatS=1 NMatT=0.
 ***** Axes restored to original set *****
 -------------------------------------------------------------------
 Center     Atomic                   Forces (Hartrees/Bohr)
 Number     Number              X              Y              Z
 -------------------------------------------------------------------
      1        8          -0.005489594    0.004888952   -0.040490322
      2       17           0.003896465   -0.003642597    0.029305886
      3        1           0.001593128   -0.001246355    0.011184437
 -------------------------------------------------------------------
 Cartesian Forces:  Max     0.040490322 RMS     0.017352466

 GradGradGradGradGradGradGradGradGradGradGradGradGradGradGradGradGradGrad
 Berny optimization.
 FormGI is forming the generalized inverse of G from B-inverse, IUseBI=4.
 Internal  Forces:  Max     0.029185497 RMS     0.020671796
 Search for a saddle point.
 Step number   5 out of a maximum of  100
 All quantities printed in internal units (Hartrees-Bohrs-Radians)
 Swapping is turned off.
 Update second derivatives using D2CorX and points    2    3    4    5
 The second derivative matrix:
                          R1        R2        A1
           R1           0.14215
           R2          -0.00812   0.55356
           A1           0.05489   0.00048   0.19114
 ITU=  0  0  0  0
     Eigenvalues ---    0.10642   0.22671   0.55372
 Eigenvectors required to have negative eigenvalues:
                          R1        A1        R2
   1                   -0.83907   0.54380  -0.01583
 RFO step:  Lambda0=1.173146813D-01 Lambda=-1.27390896D-05.
 Linear search not attempted -- option 19 set.
 Iteration  1 RMS(Cart)=  0.00481961 RMS(Int)=  0.00000172
 Iteration  2 RMS(Cart)=  0.00000198 RMS(Int)=  0.00000000
 Iteration  3 RMS(Cart)=  0.00000000 RMS(Int)=  0.00000000
 ClnCor:  largest displacement from symmetrization is 2.56D-15 for atom     3.
 Variable       Old X    -DE/DX   Delta X   Delta X   Delta X     New X
                                 (Linear)    (Quad)   (Total)
    R1        3.46403  -0.02919   0.00000   0.00923   0.00923   3.47326
    R2        1.84458  -0.00197   0.00000  -0.00238  -0.00238   1.84220
    A1        1.61385   0.02065   0.00000   0.00160   0.00160   1.61546
         Item               Value     Threshold  Converged?
 Maximum Force            0.029185     0.000450     NO 
 RMS     Force            0.020672     0.000300     NO 
 Maximum Displacement     0.005720     0.001800     NO 
 RMS     Displacement     0.004821     0.001200     NO 
 Predicted change in Energy= 2.404093D-04
 GradGradGradGradGradGradGradGradGradGradGradGradGradGradGradGradGradGrad

                          Input orientation:                          
 ---------------------------------------------------------------------
 Center     Atomic      Atomic             Coordinates (Angstroms)
 Number     Number       Type             X           Y           Z
 ---------------------------------------------------------------------
      1          8           0        2.364995    3.517956    0.007234
      2         17           0        2.350022    4.034863   -1.756489
      3          1           0        1.770806    2.764169   -0.163286
 ---------------------------------------------------------------------
                    Distance matrix (angstroms):
                    1          2          3
     1  O    0.000000
     2  Cl   1.837970   0.000000
     3  H    0.974850   2.118596   0.000000
 Stoichiometry    ClHO
 Framework group  CS[SG(ClHO)]
 Deg. of freedom     3
 Full point group                 CS      NOp   2
 Largest Abelian subgroup         CS      NOp   2
 Largest concise Abelian subgroup C1      NOp   1
                         Standard orientation:                         
 ---------------------------------------------------------------------
 Center     Atomic      Atomic             Coordinates (Angstroms)
 Number     Number       Type             X           Y           Z
 ---------------------------------------------------------------------
      1          8           0        0.037457    1.200076   -0.000000
      2         17           0        0.037457   -0.637894    0.000000
      3          1           0       -0.936421    1.243597   -0.000000
 ---------------------------------------------------------------------
 Rotational constants (GHZ):         564.2407177          13.0257046          12.7317866
 Standard basis: SVP (5D, 7F)
 There are    29 symmetry adapted cartesian basis functions of A'  symmetry.
 There are    10 symmetry adapted cartesian basis functions of A"  symmetry.
 There are    27 symmetry adapted basis functions of A'  symmetry.
 There are    10 symmetry adapted basis functions of A"  symmetry.
    37 basis functions,    69 primitive gaussians,    39 cartesian basis functions
    13 alpha electrons       13 beta electrons
       nuclear repulsion energy        47.7451415423 Hartrees.
 NAtoms=    3 NActive=    3 NUniq=    3 SFac= 1.00D+00 NAtFMM=   60 NAOKFM=F Big=F
 Integral buffers will be    131072 words long.
 Raffenetti 2 integral format.
 Two-electron integral symmetry is turned on.
 Nuclear repulsion after empirical dispersion term =       47.7435273593 Hartrees.
 One-electron integrals computed using PRISM.
 NBasis=    37 RedAO= T EigKep=  4.05D-02  NBF=    27    10
 NBsUse=    37 1.00D-06 EigRej= -1.00D+00 NBFU=    27    10
 Initial guess from the checkpoint file:  "/tmp/Gau-30674.chk"
 B after Tr=    -0.000000   -0.000000   -0.000000
         Rot=    1.000000    0.000000   -0.000000    0.000148 Ang=   0.02 deg.
 Initial guess orbital symmetries:
       Occupied  (A') (A') (A') (A') (A') (A") (A') (A') (A') (A')
                 (A") (A') (A")
       Virtual   (A') (A') (A') (A') (A') (A") (A') (A') (A") (A')
                 (A") (A') (A") (A') (A') (A') (A") (A') (A') (A")
                 (A') (A') (A") (A')
 Keep R1 ints in memory in symmetry-blocked form, NReq=7153137.
 Requested convergence on RMS density matrix=1.00D-08 within 128 cycles.
 Requested convergence on MAX density matrix=1.00D-06.
 Requested convergence on             energy=1.00D-06.
 No special actions if energy rises.
 SCF Done:  E(RB3LYP) =  -535.754627788     A.U. after    8 cycles
            NFock=  8  Conv=0.46D-08     -V/T= 2.0028
 Calling FoFJK, ICntrl=      2127 FMM=F ISym2X=1 I1Cent= 0 IOpClX= 0 NMat=1 NMatS=1 NMatT=0.
 ***** Axes restored to original set *****
 -------------------------------------------------------------------
 Center     Atomic                   Forces (Hartrees/Bohr)
 Number     Number              X              Y              Z
 -------------------------------------------------------------------
      1        8          -0.004543302    0.006366957   -0.041129949
      2       17           0.003736530   -0.004246014    0.030574947
      3        1           0.000806773   -0.002120943    0.010555002
 -------------------------------------------------------------------
 Cartesian Forces:  Max     0.041129949 RMS     0.017752081

 GradGradGradGradGradGradGradGradGradGradGradGradGradGradGradGradGradGrad
 Berny optimization.
 FormGI is forming the generalized inverse of G from B-inverse, IUseBI=4.
 Internal  Forces:  Max     0.030564725 RMS     0.021043981
 Search for a saddle point.
 Step number   6 out of a maximum of  100
 All quantities printed in internal units (Hartrees-Bohrs-Radians)
 Swapping is turned off.
 Second derivative matrix not updated -- analytic derivatives used.
 The second derivative matrix:
                          R1        R2        A1
           R1           0.14215
           R2          -0.00812   0.55356
           A1           0.05489   0.00048   0.19114
 ITU=  0  0  0  0
     Eigenvalues ---    0.10642   0.22671   0.55372
 Eigenvectors required to have negative eigenvalues:
                          R1        A1        R2
   1                   -0.83907   0.54380  -0.01583
 RFO step:  Lambda0=1.177084665D-01 Lambda=-3.01736677D-08.
 Linear search not attempted -- option 19 set.
 Iteration  1 RMS(Cart)=  0.00014532 RMS(Int)=  0.00000001
 Iteration  2 RMS(Cart)=  0.00000001 RMS(Int)=  0.00000000
 ClnCor:  largest displacement from symmetrization is 2.94D-15 for atom     3.
 Variable       Old X    -DE/DX   Delta X   Delta X   Delta X     New X
                                 (Linear)    (Quad)   (Total)
    R1        3.47326  -0.03056   0.00000   0.00029   0.00029   3.47355
    R2        1.84220  -0.00070   0.00000  -0.00021  -0.00021   1.84199
    A1        1.61546   0.01985   0.00000  -0.00003  -0.00003   1.61543
         Item               Value     Threshold  Converged?
 Maximum Force            0.030565     0.000450     NO 
 RMS     Force            0.021044     0.000300     NO 
 Maximum Displacement     0.000143     0.001800     YES
 RMS     Displacement     0.000145     0.001200     YES
 Predicted change in Energy= 9.244336D-06
 GradGradGradGradGradGradGradGradGradGradGradGradGradGradGradGradGradGrad

                          Input orientation:                          
 ---------------------------------------------------------------------
 Center     Atomic      Atomic             Coordinates (Angstroms)
 Number     Number       Type             X           Y           Z
 ---------------------------------------------------------------------
      1          8           0        2.364960    3.517892    0.007291
      2         17           0        2.350024    4.034889   -1.756564
      3          1           0        1.770838    2.764206   -0.163268
 ---------------------------------------------------------------------
                    Distance matrix (angstroms):
                    1          2          3
     1  O    0.000000
     2  Cl   1.838123   0.000000
     3  H    0.974738   2.118651   0.000000
 Stoichiometry    ClHO
 Framework group  CS[SG(ClHO)]
 Deg. of freedom     3
 Full point group                 CS      NOp   2
 Largest Abelian subgroup         CS      NOp   2
 Largest concise Abelian subgroup C1      NOp   1
                         Standard orientation:                         
 ---------------------------------------------------------------------
 Center     Atomic      Atomic             Coordinates (Angstroms)
 Number     Number       Type             X           Y           Z
 ---------------------------------------------------------------------
      1          8           0        0.037453    1.200177   -0.000000
      2         17           0        0.037453   -0.637946    0.000000
      3          1           0       -0.936315    1.243666   -0.000000
 ---------------------------------------------------------------------
 Rotational constants (GHZ):         564.3677866          13.0235814          12.7298228
 Standard basis: SVP (5D, 7F)
 There are    29 symmetry adapted cartesian basis functions of A'  symmetry.
 There are    10 symmetry adapted cartesian basis functions of A"  symmetry.
 There are    27 symmetry adapted basis functions of A'  symmetry.
 There are    10 symmetry adapted basis functions of A"  symmetry.
    37 basis functions,    69 primitive gaussians,    39 cartesian basis functions
    13 alpha electrons       13 beta electrons
       nuclear repulsion energy        47.7422834113 Hartrees.
 NAtoms=    3 NActive=    3 NUniq=    3 SFac= 1.00D+00 NAtFMM=   60 NAOKFM=F Big=F
 Integral buffers will be    131072 words long.
 Raffenetti 2 integral format.
 Two-electron integral symmetry is turned on.
 Nuclear repulsion after empirical dispersion term =       47.7406692359 Hartrees.
 One-electron integrals computed using PRISM.
 NBasis=    37 RedAO= T EigKep=  4.05D-02  NBF=    27    10
 NBsUse=    37 1.00D-06 EigRej= -1.00D+00 NBFU=    27    10
 Initial guess from the checkpoint file:  "/tmp/Gau-30674.chk"
 B after Tr=     0.000000   -0.000000    0.000000
         Rot=    1.000000   -0.000000    0.000000    0.000005 Ang=   0.00 deg.
 Initial guess orbital symmetries:
       Occupied  (A') (A') (A') (A') (A') (A") (A') (A') (A') (A')
                 (A") (A') (A")
       Virtual   (A') (A') (A') (A') (A') (A") (A') (A') (A") (A')
                 (A") (A') (A") (A') (A') (A') (A") (A') (A') (A")
                 (A') (A') (A") (A')
 Keep R1 ints in memory in symmetry-blocked form, NReq=7153137.
 Requested convergence on RMS density matrix=1.00D-08 within 128 cycles.
 Requested convergence on MAX density matrix=1.00D-06.
 Requested convergence on             energy=1.00D-06.
 No special actions if energy rises.
 SCF Done:  E(RB3LYP) =  -535.754618546     A.U. after    6 cycles
            NFock=  6  Conv=0.44D-08     -V/T= 2.0028
 Calling FoFJK, ICntrl=      2127 FMM=F ISym2X=1 I1Cent= 0 IOpClX= 0 NMat=1 NMatS=1 NMatT=0.
 ***** Axes restored to original set *****
 -------------------------------------------------------------------
 Center     Atomic                   Forces (Hartrees/Bohr)
 Number     Number              X              Y              Z
 -------------------------------------------------------------------
      1        8          -0.004473722    0.006465395   -0.041143363
      2       17           0.003734058   -0.004260634    0.030611943
      3        1           0.000739664   -0.002204760    0.010531420
 -------------------------------------------------------------------
 Cartesian Forces:  Max     0.041143363 RMS     0.017764190

 GradGradGradGradGradGradGradGradGradGradGradGradGradGradGradGradGradGrad
 Berny optimization.
 FormGI is forming the generalized inverse of G from B-inverse, IUseBI=4.
 Internal  Forces:  Max     0.030604125 RMS     0.021058600
 Search for a saddle point.
 Step number   7 out of a maximum of  100
 All quantities printed in internal units (Hartrees-Bohrs-Radians)
 Swapping is turned off.
 Update second derivatives using D2CorX and points    4    5    7
 The second derivative matrix:
                          R1        R2        A1
           R1           0.14097
           R2           0.00336   0.54653
           A1           0.05438   0.00253   0.19100
 ITU=  0  0  0  0
     Eigenvalues ---    0.10612   0.22579   0.54659
 Eigenvectors required to have negative eigenvalues:
                          R1        A1        R2
   1                   -0.84204   0.53941   0.00332
 RFO step:  Lambda0=1.174459459D-01 Lambda=-1.09648454D-06.
 Linear search not attempted -- option 19 set.
 Iteration  1 RMS(Cart)=  0.00091040 RMS(Int)=  0.00000022
 Iteration  2 RMS(Cart)=  0.00000025 RMS(Int)=  0.00000000
 ClnCor:  largest displacement from symmetrization is 2.86D-15 for atom     3.
 Variable       Old X    -DE/DX   Delta X   Delta X   Delta X     New X
                                 (Linear)    (Quad)   (Total)
    R1        3.47355  -0.03060   0.00000   0.00180   0.00180   3.47535
    R2        1.84199  -0.00059   0.00000  -0.00131  -0.00131   1.84068
    A1        1.61543   0.01984   0.00000  -0.00010  -0.00010   1.61532
         Item               Value     Threshold  Converged?
 Maximum Force            0.030604     0.000450     NO 
 RMS     Force            0.021059     0.000300     NO 
 Maximum Displacement     0.000916     0.001800     YES
 RMS     Displacement     0.000910     0.001200     YES
 Predicted change in Energy= 5.700029D-05
 GradGradGradGradGradGradGradGradGradGradGradGradGradGradGradGradGradGrad

                          Input orientation:                          
 ---------------------------------------------------------------------
 Center     Atomic      Atomic             Coordinates (Angstroms)
 Number     Number       Type             X           Y           Z
 ---------------------------------------------------------------------
      1          8           0        2.364741    3.517492    0.007629
      2         17           0        2.350051    4.035073   -1.757049
      3          1           0        1.771030    2.764422   -0.163121
 ---------------------------------------------------------------------
                    Distance matrix (angstroms):
                    1          2          3
     1  O    0.000000
     2  Cl   1.839074   0.000000
     3  H    0.974045   2.119063   0.000000
 Stoichiometry    ClHO
 Framework group  CS[SG(ClHO)]
 Deg. of freedom     3
 Full point group                 CS      NOp   2
 Largest Abelian subgroup         CS      NOp   2
 Largest concise Abelian subgroup C1      NOp   1
                         Standard orientation:                         
 ---------------------------------------------------------------------
 Center     Atomic      Atomic             Coordinates (Angstroms)
 Number     Number       Type             X           Y           Z
 ---------------------------------------------------------------------
      1          8           0        0.037426    1.200804   -0.000000
      2         17           0        0.037426   -0.638270    0.000000
      3          1           0       -0.935653    1.244160   -0.000000
 ---------------------------------------------------------------------
 Rotational constants (GHZ):         565.1584396          13.0102833          12.7175185
 Standard basis: SVP (5D, 7F)
 There are    29 symmetry adapted cartesian basis functions of A'  symmetry.
 There are    10 symmetry adapted cartesian basis functions of A"  symmetry.
 There are    27 symmetry adapted basis functions of A'  symmetry.
 There are    10 symmetry adapted basis functions of A"  symmetry.
    37 basis functions,    69 primitive gaussians,    39 cartesian basis functions
    13 alpha electrons       13 beta electrons
       nuclear repulsion energy        47.7242965172 Hartrees.
 NAtoms=    3 NActive=    3 NUniq=    3 SFac= 1.00D+00 NAtFMM=   60 NAOKFM=F Big=F
 Integral buffers will be    131072 words long.
 Raffenetti 2 integral format.
 Two-electron integral symmetry is turned on.
 Nuclear repulsion after empirical dispersion term =       47.7226823934 Hartrees.
 One-electron integrals computed using PRISM.
 NBasis=    37 RedAO= T EigKep=  4.05D-02  NBF=    27    10
 NBsUse=    37 1.00D-06 EigRej= -1.00D+00 NBFU=    27    10
 Initial guess from the checkpoint file:  "/tmp/Gau-30674.chk"
 B after Tr=    -0.000000    0.000000   -0.000000
         Rot=    1.000000   -0.000000    0.000000    0.000032 Ang=   0.00 deg.
 Initial guess orbital symmetries:
       Occupied  (A') (A') (A') (A') (A') (A") (A') (A') (A') (A')
                 (A") (A') (A")
       Virtual   (A') (A') (A') (A') (A') (A") (A') (A') (A") (A')
                 (A") (A') (A") (A') (A') (A') (A") (A') (A') (A")
                 (A') (A') (A") (A')
 Keep R1 ints in memory in symmetry-blocked form, NReq=7153137.
 Requested convergence on RMS density matrix=1.00D-08 within 128 cycles.
 Requested convergence on MAX density matrix=1.00D-06.
 Requested convergence on             energy=1.00D-06.
 No special actions if energy rises.
 SCF Done:  E(RB3LYP) =  -535.754561565     A.U. after    7 cycles
            NFock=  7  Conv=0.28D-08     -V/T= 2.0028
 Calling FoFJK, ICntrl=      2127 FMM=F ISym2X=1 I1Cent= 0 IOpClX= 0 NMat=1 NMatS=1 NMatT=0.
 ***** Axes restored to original set *****
 -------------------------------------------------------------------
 Center     Atomic                   Forces (Hartrees/Bohr)
 Number     Number              X              Y              Z
 -------------------------------------------------------------------
      1        8          -0.004040759    0.007076758   -0.041223015
      2       17           0.003716029   -0.004356044    0.030844924
      3        1           0.000324730   -0.002720714    0.010378091
 -------------------------------------------------------------------
 Cartesian Forces:  Max     0.041223015 RMS     0.017842369

 GradGradGradGradGradGradGradGradGradGradGradGradGradGradGradGradGradGrad
 Berny optimization.
 FormGI is forming the generalized inverse of G from B-inverse, IUseBI=4.
 Internal  Forces:  Max     0.030853095 RMS     0.021151824
 Search for a saddle point.
 Step number   8 out of a maximum of  100
 All quantities printed in internal units (Hartrees-Bohrs-Radians)
 Swapping is turned off.
 Update second derivatives using D2CorX and points    5    6    7    8
 The second derivative matrix:
                          R1        R2        A1
           R1           0.15035
           R2           0.01180   0.53161
           A1           0.05620   0.00101   0.19091
 ITU=  0  0  0  0
     Eigenvalues ---    0.11069   0.23019   0.53200
 Eigenvectors required to have negative eigenvalues:
                          R1        A1        R2
   1                   -0.81895   0.57346   0.02158
 RFO step:  Lambda0=1.216960735D-01 Lambda=-1.07610002D-05.
 Linear search not attempted -- option 19 set.
 Iteration  1 RMS(Cart)=  0.00681340 RMS(Int)=  0.00002901
 Iteration  2 RMS(Cart)=  0.00002075 RMS(Int)=  0.00000000
 Iteration  3 RMS(Cart)=  0.00000000 RMS(Int)=  0.00000000
 ClnCor:  largest displacement from symmetrization is 2.09D-15 for atom     3.
 Variable       Old X    -DE/DX   Delta X   Delta X   Delta X     New X
                                 (Linear)    (Quad)   (Total)
    R1        3.47535  -0.03085   0.00000   0.00168   0.00168   3.47702
    R2        1.84068   0.00009   0.00000  -0.00137  -0.00137   1.83931
    A1        1.61532   0.01976   0.00000  -0.00915  -0.00915   1.60617
         Item               Value     Threshold  Converged?
 Maximum Force            0.030853     0.000450     NO 
 RMS     Force            0.021152     0.000300     NO 
 Maximum Displacement     0.007579     0.001800     NO 
 RMS     Displacement     0.006818     0.001200     NO 
 Predicted change in Energy= 2.403865D-04
 GradGradGradGradGradGradGradGradGradGradGradGradGradGradGradGradGradGrad

                          Input orientation:                          
 ---------------------------------------------------------------------
 Center     Atomic      Atomic             Coordinates (Angstroms)
 Number     Number       Type             X           Y           Z
 ---------------------------------------------------------------------
      1          8           0        2.365347    3.517464    0.010418
      2         17           0        2.348633    4.032779   -1.755828
      3          1           0        1.771842    2.766745   -0.167131
 ---------------------------------------------------------------------
                    Distance matrix (angstroms):
                    1          2          3
     1  O    0.000000
     2  Cl   1.839960   0.000000
     3  H    0.973319   2.111750   0.000000
 Stoichiometry    ClHO
 Framework group  CS[SG(ClHO)]
 Deg. of freedom     3
 Full point group                 CS      NOp   2
 Largest Abelian subgroup         CS      NOp   2
 Largest concise Abelian subgroup C1      NOp   1
                         Standard orientation:                         
 ---------------------------------------------------------------------
 Center     Atomic      Atomic             Coordinates (Angstroms)
 Number     Number       Type             X           Y           Z
 ---------------------------------------------------------------------
      1          8           0        0.037412    1.201727    0.000000
      2         17           0        0.037412   -0.638233   -0.000000
      3          1           0       -0.935298    1.236152    0.000000
 ---------------------------------------------------------------------
 Rotational constants (GHZ):         565.2438457          13.0056579          12.7131420
 Standard basis: SVP (5D, 7F)
 There are    29 symmetry adapted cartesian basis functions of A'  symmetry.
 There are    10 symmetry adapted cartesian basis functions of A"  symmetry.
 There are    27 symmetry adapted basis functions of A'  symmetry.
 There are    10 symmetry adapted basis functions of A"  symmetry.
    37 basis functions,    69 primitive gaussians,    39 cartesian basis functions
    13 alpha electrons       13 beta electrons
       nuclear repulsion energy        47.7233851060 Hartrees.
 NAtoms=    3 NActive=    3 NUniq=    3 SFac= 1.00D+00 NAtFMM=   60 NAOKFM=F Big=F
 Integral buffers will be    131072 words long.
 Raffenetti 2 integral format.
 Two-electron integral symmetry is turned on.
 Nuclear repulsion after empirical dispersion term =       47.7217705924 Hartrees.
 One-electron integrals computed using PRISM.
 NBasis=    37 RedAO= T EigKep=  4.05D-02  NBF=    27    10
 NBsUse=    37 1.00D-06 EigRej= -1.00D+00 NBFU=    27    10
 Initial guess from the checkpoint file:  "/tmp/Gau-30674.chk"
 B after Tr=    -0.000000    0.000000    0.000000
         Rot=    1.000000   -0.000000    0.000000   -0.000175 Ang=  -0.02 deg.
 Initial guess orbital symmetries:
       Occupied  (A') (A') (A') (A') (A') (A") (A') (A') (A') (A')
                 (A") (A') (A")
       Virtual   (A') (A') (A') (A') (A') (A") (A') (A') (A") (A')
                 (A") (A') (A") (A') (A') (A') (A") (A') (A') (A")
                 (A') (A') (A") (A')
 Keep R1 ints in memory in symmetry-blocked form, NReq=7153137.
 Requested convergence on RMS density matrix=1.00D-08 within 128 cycles.
 Requested convergence on MAX density matrix=1.00D-06.
 Requested convergence on             energy=1.00D-06.
 No special actions if energy rises.
 SCF Done:  E(RB3LYP) =  -535.754321583     A.U. after    8 cycles
            NFock=  8  Conv=0.67D-08     -V/T= 2.0028
 Calling FoFJK, ICntrl=      2127 FMM=F ISym2X=1 I1Cent= 0 IOpClX= 0 NMat=1 NMatS=1 NMatT=0.
 ***** Axes restored to original set *****
 -------------------------------------------------------------------
 Center     Atomic                   Forces (Hartrees/Bohr)
 Number     Number              X              Y              Z
 -------------------------------------------------------------------
      1        8          -0.003892486    0.007439447   -0.041753659
      2       17           0.004020166   -0.003896252    0.030689369
      3        1          -0.000127680   -0.003543195    0.011064290
 -------------------------------------------------------------------
 Cartesian Forces:  Max     0.041753659 RMS     0.018018613

 GradGradGradGradGradGradGradGradGradGradGradGradGradGradGradGradGradGrad
 Berny optimization.
 FormGI is forming the generalized inverse of G from B-inverse, IUseBI=4.
 Internal  Forces:  Max     0.030587919 RMS     0.021530967
 Search for a saddle point.
 Step number   9 out of a maximum of  100
 All quantities printed in internal units (Hartrees-Bohrs-Radians)
 Swapping is turned off.
 Update second derivatives using D2CorX and points    6    7    8    9
 The second derivative matrix:
                          R1        R2        A1
           R1           0.15249
           R2           0.01100   0.53158
           A1           0.05525  -0.00049   0.18107
 ITU=  0  0  0  0
     Eigenvalues ---    0.10952   0.22372   0.53190
 Eigenvectors required to have negative eigenvalues:
                          R1        A1        R2
   1                   -0.79123   0.61114   0.02133
 RFO step:  Lambda0=1.209866012D-01 Lambda=-1.48954930D-05.
 Linear search not attempted -- option 19 set.
 Iteration  1 RMS(Cart)=  0.00842947 RMS(Int)=  0.00004334
 Iteration  2 RMS(Cart)=  0.00003278 RMS(Int)=  0.00000000
 Iteration  3 RMS(Cart)=  0.00000000 RMS(Int)=  0.00000000
 ClnCor:  largest displacement from symmetrization is 2.19D-15 for atom     3.
 Variable       Old X    -DE/DX   Delta X   Delta X   Delta X     New X
                                 (Linear)    (Quad)   (Total)
    R1        3.47702  -0.03059   0.00000   0.00147   0.00147   3.47849
    R2        1.83931   0.00079   0.00000  -0.00008  -0.00008   1.83923
    A1        1.60617   0.02132   0.00000  -0.01144  -0.01144   1.59473
         Item               Value     Threshold  Converged?
 Maximum Force            0.030588     0.000450     NO 
 RMS     Force            0.021531     0.000300     NO 
 Maximum Displacement     0.009570     0.001800     NO 
 RMS     Displacement     0.008441     0.001200     NO 
 Predicted change in Energy= 3.000929D-04
 GradGradGradGradGradGradGradGradGradGradGradGradGradGradGradGradGradGrad

                          Input orientation:                          
 ---------------------------------------------------------------------
 Center     Atomic      Atomic             Coordinates (Angstroms)
 Number     Number       Type             X           Y           Z
 ---------------------------------------------------------------------
      1          8           0        2.366338    3.517775    0.013808
      2         17           0        2.346870    4.029878   -1.754154
      3          1           0        1.772615    2.769335   -0.172195
 ---------------------------------------------------------------------
                    Distance matrix (angstroms):
                    1          2          3
     1  O    0.000000
     2  Cl   1.840738   0.000000
     3  H    0.973277   2.102696   0.000000
 Stoichiometry    ClHO
 Framework group  CS[SG(ClHO)]
 Deg. of freedom     3
 Full point group                 CS      NOp   2
 Largest Abelian subgroup         CS      NOp   2
 Largest concise Abelian subgroup C1      NOp   1
                         Standard orientation:                         
 ---------------------------------------------------------------------
 Center     Atomic      Atomic             Coordinates (Angstroms)
 Number     Number       Type             X           Y           Z
 ---------------------------------------------------------------------
      1          8           0        0.037423    1.202664   -0.000000
      2         17           0        0.037423   -0.638074    0.000000
      3          1           0       -0.935575    1.225955   -0.000000
 ---------------------------------------------------------------------
 Rotational constants (GHZ):         564.4858577          13.0044146          12.7115702
 Standard basis: SVP (5D, 7F)
 There are    29 symmetry adapted cartesian basis functions of A'  symmetry.
 There are    10 symmetry adapted cartesian basis functions of A"  symmetry.
 There are    27 symmetry adapted basis functions of A'  symmetry.
 There are    10 symmetry adapted basis functions of A"  symmetry.
    37 basis functions,    69 primitive gaussians,    39 cartesian basis functions
    13 alpha electrons       13 beta electrons
       nuclear repulsion energy        47.7253863143 Hartrees.
 NAtoms=    3 NActive=    3 NUniq=    3 SFac= 1.00D+00 NAtFMM=   60 NAOKFM=F Big=F
 Integral buffers will be    131072 words long.
 Raffenetti 2 integral format.
 Two-electron integral symmetry is turned on.
 Nuclear repulsion after empirical dispersion term =       47.7237713190 Hartrees.
 One-electron integrals computed using PRISM.
 NBasis=    37 RedAO= T EigKep=  4.05D-02  NBF=    27    10
 NBsUse=    37 1.00D-06 EigRej= -1.00D+00 NBFU=    27    10
 Initial guess from the checkpoint file:  "/tmp/Gau-30674.chk"
 B after Tr=     0.000000   -0.000000   -0.000000
         Rot=    1.000000    0.000000   -0.000000   -0.000246 Ang=  -0.03 deg.
 Initial guess orbital symmetries:
       Occupied  (A') (A') (A') (A') (A') (A") (A') (A') (A') (A')
                 (A") (A') (A")
       Virtual   (A') (A') (A') (A') (A') (A") (A') (A') (A") (A')
                 (A") (A') (A") (A') (A') (A') (A") (A') (A') (A")
                 (A') (A') (A") (A')
 Keep R1 ints in memory in symmetry-blocked form, NReq=7153137.
 Requested convergence on RMS density matrix=1.00D-08 within 128 cycles.
 Requested convergence on MAX density matrix=1.00D-06.
 Requested convergence on             energy=1.00D-06.
 No special actions if energy rises.
 SCF Done:  E(RB3LYP) =  -535.754021474     A.U. after    8 cycles
            NFock=  8  Conv=0.73D-08     -V/T= 2.0028
 Calling FoFJK, ICntrl=      2127 FMM=F ISym2X=1 I1Cent= 0 IOpClX= 0 NMat=1 NMatS=1 NMatT=0.
 ***** Axes restored to original set *****
 -------------------------------------------------------------------
 Center     Atomic                   Forces (Hartrees/Bohr)
 Number     Number              X              Y              Z
 -------------------------------------------------------------------
      1        8          -0.004212639    0.007221553   -0.042463589
      2       17           0.004409701   -0.003276178    0.030387782
      3        1          -0.000197062   -0.003945375    0.012075807
 -------------------------------------------------------------------
 Cartesian Forces:  Max     0.042463589 RMS     0.018221110

 GradGradGradGradGradGradGradGradGradGradGradGradGradGradGradGradGradGrad
 Berny optimization.
 FormGI is forming the generalized inverse of G from B-inverse, IUseBI=4.
 Internal  Forces:  Max     0.030144777 RMS     0.022007735
 Search for a saddle point.
 Step number  10 out of a maximum of  100
 All quantities printed in internal units (Hartrees-Bohrs-Radians)
 Swapping is turned off.
 Update second derivatives using D2CorX and points    7    8    9   10
 The second derivative matrix:
                          R1        R2        A1
           R1           0.15140
           R2           0.01074   0.53202
           A1           0.05810   0.00238   0.18188
 ITU=  0  0  0  0
     Eigenvalues ---    0.10646   0.22647   0.53237
 Eigenvectors required to have negative eigenvalues:
                          R1        A1        R2
   1                   -0.79235   0.60984   0.01658
 RFO step:  Lambda0=1.187017798D-01 Lambda=-1.19937944D-07.
 Linear search not attempted -- option 19 set.
 Iteration  1 RMS(Cart)=  0.00035590 RMS(Int)=  0.00000000
 Iteration  2 RMS(Cart)=  0.00000001 RMS(Int)=  0.00000000
 ClnCor:  largest displacement from symmetrization is 4.55D-15 for atom     3.
 Variable       Old X    -DE/DX   Delta X   Delta X   Delta X     New X
                                 (Linear)    (Quad)   (Total)
    R1        3.47849  -0.03014   0.00000   0.00068   0.00068   3.47917
    R2        1.83923   0.00085   0.00000   0.00039   0.00039   1.83962
    A1        1.59473   0.02332   0.00000  -0.00004  -0.00004   1.59469
         Item               Value     Threshold  Converged?
 Maximum Force            0.030145     0.000450     NO 
 RMS     Force            0.022008     0.000300     NO 
 Maximum Displacement     0.000399     0.001800     YES
 RMS     Displacement     0.000356     0.001200     YES
 Predicted change in Energy= 2.099142D-05
 GradGradGradGradGradGradGradGradGradGradGradGradGradGradGradGradGradGrad

                          Input orientation:                          
 ---------------------------------------------------------------------
 Center     Atomic      Atomic             Coordinates (Angstroms)
 Number     Number       Type             X           Y           Z
 ---------------------------------------------------------------------
      1          8           0        2.366386    3.517798    0.013945
      2         17           0        2.346900    4.029984   -1.754365
      3          1           0        1.772536    2.769206   -0.172122
 ---------------------------------------------------------------------
                    Distance matrix (angstroms):
                    1          2          3
     1  O    0.000000
     2  Cl   1.841096   0.000000
     3  H    0.973482   2.103080   0.000000
 Stoichiometry    ClHO
 Framework group  CS[SG(ClHO)]
 Deg. of freedom     3
 Full point group                 CS      NOp   2
 Largest Abelian subgroup         CS      NOp   2
 Largest concise Abelian subgroup C1      NOp   1
                         Standard orientation:                         
 ---------------------------------------------------------------------
 Center     Atomic      Atomic             Coordinates (Angstroms)
 Number     Number       Type             X           Y           Z
 ---------------------------------------------------------------------
      1          8           0        0.037431    1.202899   -0.000000
      2         17           0        0.037431   -0.638197    0.000000
      3          1           0       -0.935774    1.226158   -0.000000
 ---------------------------------------------------------------------
 Rotational constants (GHZ):         564.2450570          12.9993942          12.7066512
 Standard basis: SVP (5D, 7F)
 There are    29 symmetry adapted cartesian basis functions of A'  symmetry.
 There are    10 symmetry adapted cartesian basis functions of A"  symmetry.
 There are    27 symmetry adapted basis functions of A'  symmetry.
 There are    10 symmetry adapted basis functions of A"  symmetry.
    37 basis functions,    69 primitive gaussians,    39 cartesian basis functions
    13 alpha electrons       13 beta electrons
       nuclear repulsion energy        47.7160911108 Hartrees.
 NAtoms=    3 NActive=    3 NUniq=    3 SFac= 1.00D+00 NAtFMM=   60 NAOKFM=F Big=F
 Integral buffers will be    131072 words long.
 Raffenetti 2 integral format.
 Two-electron integral symmetry is turned on.
 Nuclear repulsion after empirical dispersion term =       47.7144761417 Hartrees.
 One-electron integrals computed using PRISM.
 NBasis=    37 RedAO= T EigKep=  4.05D-02  NBF=    27    10
 NBsUse=    37 1.00D-06 EigRej= -1.00D+00 NBFU=    27    10
 Initial guess from the checkpoint file:  "/tmp/Gau-30674.chk"
 B after Tr=     0.000000   -0.000000    0.000000
         Rot=    1.000000   -0.000000    0.000000   -0.000001 Ang=  -0.00 deg.
 Initial guess orbital symmetries:
       Occupied  (A') (A') (A') (A') (A') (A") (A') (A') (A') (A')
                 (A") (A') (A")
       Virtual   (A') (A') (A') (A') (A') (A") (A') (A') (A") (A')
                 (A") (A') (A") (A') (A') (A') (A") (A') (A') (A")
                 (A') (A') (A") (A')
 Keep R1 ints in memory in symmetry-blocked form, NReq=7153137.
 Requested convergence on RMS density matrix=1.00D-08 within 128 cycles.
 Requested convergence on MAX density matrix=1.00D-06.
[...]
 Eigenvectors required to have negative eigenvalues:
                          R1        A1        R2
   1                   -0.86646   0.49862  -0.02506
 RFO step:  Lambda0=1.077501035D-01 Lambda= 0.00000000D+00.
 Linear search not attempted -- option 19 set.
 Iteration  1 RMS(Cart)=  0.00000004 RMS(Int)=  0.00000000
 ClnCor:  largest displacement from symmetrization is 1.98D-15 for atom     1.
 Variable       Old X    -DE/DX   Delta X   Delta X   Delta X     New X
                                 (Linear)    (Quad)   (Total)
    R1        3.51324  -0.03496   0.00000   0.00000   0.00000   3.51324
    R2        1.84353  -0.00101   0.00000   0.00000   0.00000   1.84353
    A1        1.60192   0.02012   0.00000  -0.00000  -0.00000   1.60192
         Item               Value     Threshold  Converged?
 Maximum Force            0.034961     0.000450     NO 
 RMS     Force            0.023296     0.000300     NO 
 Maximum Displacement     0.000000     0.001800     YES
 RMS     Displacement     0.000000     0.001200     YES
 Predicted change in Energy= 2.297403D-09
 GradGradGradGradGradGradGradGradGradGradGradGradGradGradGradGradGradGrad

                          Input orientation:                          
 ---------------------------------------------------------------------
 Center     Atomic      Atomic             Coordinates (Angstroms)
 Number     Number       Type             X           Y           Z
 ---------------------------------------------------------------------
      1          8           0        2.365644    3.515513    0.018148
      2         17           0        2.349540    4.037174   -1.766221
      3          1           0        1.770638    2.764301   -0.164468
 ---------------------------------------------------------------------
                    Distance matrix (angstroms):
                    1          2          3
     1  O    0.000000
     2  Cl   1.859129   0.000000
     3  H    0.975552   2.126251   0.000000
 Stoichiometry    ClHO
 Framework group  CS[SG(ClHO)]
 Deg. of freedom     3
 Full point group                 CS      NOp   2
 Largest Abelian subgroup         CS      NOp   2
 Largest concise Abelian subgroup C1      NOp   1
                         Standard orientation:                         
 ---------------------------------------------------------------------
 Center     Atomic      Atomic             Coordinates (Angstroms)
 Number     Number       Type             X           Y           Z
 ---------------------------------------------------------------------
      1          8           0        0.037503    1.214417   -0.000000
      2         17           0        0.037503   -0.644712    0.000000
      3          1           0       -0.937576    1.244776   -0.000000
 ---------------------------------------------------------------------
 Rotational constants (GHZ):         562.3251016          12.7428302          12.4604641
 Standard basis: SVP (5D, 7F)
 There are    29 symmetry adapted cartesian basis functions of A'  symmetry.
 There are    10 symmetry adapted cartesian basis functions of A"  symmetry.
 There are    27 symmetry adapted basis functions of A'  symmetry.
 There are    10 symmetry adapted basis functions of A"  symmetry.
    37 basis functions,    69 primitive gaussians,    39 cartesian basis functions
    13 alpha electrons       13 beta electrons
       nuclear repulsion energy        47.2810977853 Hartrees.
 NAtoms=    3 NActive=    3 NUniq=    3 SFac= 1.00D+00 NAtFMM=   60 NAOKFM=F Big=F
 Integral buffers will be    131072 words long.
 Raffenetti 2 integral format.
 Two-electron integral symmetry is turned on.
 Nuclear repulsion after empirical dispersion term =       47.2794844664 Hartrees.
 One-electron integrals computed using PRISM.
 NBasis=    37 RedAO= T EigKep=  4.14D-02  NBF=    27    10
 NBsUse=    37 1.00D-06 EigRej= -1.00D+00 NBFU=    27    10
 Initial guess from the checkpoint file:  "/tmp/Gau-30674.chk"
 B after Tr=     0.000000    0.000000    0.000000
         Rot=    1.000000    0.000000   -0.000000   -0.000000 Ang=   0.00 deg.
 Initial guess orbital symmetries:
       Occupied  (A') (A') (A') (A') (A') (A") (A') (A') (A') (A')
                 (A") (A') (A")
       Virtual   (A') (A') (A') (A') (A') (A") (A') (A') (A") (A')
                 (A") (A') (A") (A') (A') (A') (A") (A') (A') (A")
                 (A') (A') (A") (A')
 Keep R1 ints in memory in symmetry-blocked form, NReq=7153137.
 Requested convergence on RMS density matrix=1.00D-08 within 128 cycles.
 Requested convergence on MAX density matrix=1.00D-06.
 Requested convergence on             energy=1.00D-06.
 No special actions if energy rises.
 SCF Done:  E(RB3LYP) =  -535.753044452     A.U. after    1 cycles
            NFock=  1  Conv=0.99D-08     -V/T= 2.0029
 Calling FoFJK, ICntrl=      2127 FMM=F ISym2X=1 I1Cent= 0 IOpClX= 0 NMat=1 NMatS=1 NMatT=0.
 ***** Axes restored to original set *****
 -------------------------------------------------------------------
 Center     Atomic                   Forces (Hartrees/Bohr)
 Number     Number              X              Y              Z
 -------------------------------------------------------------------
      1        8          -0.004716990    0.007472113   -0.045531549
      2       17           0.003798146   -0.005448855    0.034798329
      3        1           0.000918843   -0.002023258    0.010733220
 -------------------------------------------------------------------
 Cartesian Forces:  Max     0.045531549 RMS     0.019794454

 GradGradGradGradGradGradGradGradGradGradGradGradGradGradGradGradGradGrad
 Berny optimization.
 FormGI is forming the generalized inverse of G from B-inverse, IUseBI=4.
 Internal  Forces:  Max     0.034961125 RMS     0.023295799
 Search for a saddle point.
 Step number  99 out of a maximum of  100
 All quantities printed in internal units (Hartrees-Bohrs-Radians)
 Swapping is turned off.
 Update second derivatives using D2CorX and points   99
 The second derivative matrix:
                          R1        R2        A1
           R1           0.12253
           R2          -0.01041   0.51084
           A1           0.05142   0.00292   0.18214
 ITU=  0  0  0  0
     Eigenvalues ---    0.09264   0.21174   0.51113
 Eigenvectors required to have negative eigenvalues:
                          R1        A1        R2
   1                   -0.86646   0.49862  -0.02506
 RFO step:  Lambda0=1.077500944D-01 Lambda= 0.00000000D+00.
 Linear search not attempted -- option 19 set.
 Iteration  1 RMS(Cart)=  0.00000008 RMS(Int)=  0.00000000
 ClnCor:  largest displacement from symmetrization is 9.93D-16 for atom     2.
 Variable       Old X    -DE/DX   Delta X   Delta X   Delta X     New X
                                 (Linear)    (Quad)   (Total)
    R1        3.51324  -0.03496   0.00000   0.00000   0.00000   3.51324
    R2        1.84353  -0.00101   0.00000  -0.00000  -0.00000   1.84353
    A1        1.60192   0.02012   0.00000  -0.00000  -0.00000   1.60192
         Item               Value     Threshold  Converged?
 Maximum Force            0.034961     0.000450     NO 
 RMS     Force            0.023296     0.000300     NO 
 Maximum Displacement     0.000000     0.001800     YES
 RMS     Displacement     0.000000     0.001200     YES
 Predicted change in Energy= 5.587204D-09
 GradGradGradGradGradGradGradGradGradGradGradGradGradGradGradGradGradGrad

                          Input orientation:                          
 ---------------------------------------------------------------------
 Center     Atomic      Atomic             Coordinates (Angstroms)
 Number     Number       Type             X           Y           Z
 ---------------------------------------------------------------------
      1          8           0        2.365644    3.515513    0.018148
      2         17           0        2.349540    4.037174   -1.766221
      3          1           0        1.770638    2.764301   -0.164468
 ---------------------------------------------------------------------
                    Distance matrix (angstroms):
                    1          2          3
     1  O    0.000000
     2  Cl   1.859129   0.000000
     3  H    0.975551   2.126251   0.000000
 Stoichiometry    ClHO
 Framework group  CS[SG(ClHO)]
 Deg. of freedom     3
 Full point group                 CS      NOp   2
 Largest Abelian subgroup         CS      NOp   2
 Largest concise Abelian subgroup C1      NOp   1
                         Standard orientation:                         
 ---------------------------------------------------------------------
 Center     Atomic      Atomic             Coordinates (Angstroms)
 Number     Number       Type             X           Y           Z
 ---------------------------------------------------------------------
      1          8           0        0.037503    1.214417    0.000000
      2         17           0        0.037503   -0.644712   -0.000000
      3          1           0       -0.937576    1.244776    0.000000
 ---------------------------------------------------------------------
 Rotational constants (GHZ):         562.3251740          12.7428291          12.4604631
 Standard basis: SVP (5D, 7F)
 There are    29 symmetry adapted cartesian basis functions of A'  symmetry.
 There are    10 symmetry adapted cartesian basis functions of A"  symmetry.
 There are    27 symmetry adapted basis functions of A'  symmetry.
 There are    10 symmetry adapted basis functions of A"  symmetry.
    37 basis functions,    69 primitive gaussians,    39 cartesian basis functions
    13 alpha electrons       13 beta electrons
       nuclear repulsion energy        47.2810963389 Hartrees.
 NAtoms=    3 NActive=    3 NUniq=    3 SFac= 1.00D+00 NAtFMM=   60 NAOKFM=F Big=F
 Integral buffers will be    131072 words long.
 Raffenetti 2 integral format.
 Two-electron integral symmetry is turned on.
 Nuclear repulsion after empirical dispersion term =       47.2794830201 Hartrees.
 One-electron integrals computed using PRISM.
 NBasis=    37 RedAO= T EigKep=  4.14D-02  NBF=    27    10
 NBsUse=    37 1.00D-06 EigRej= -1.00D+00 NBFU=    27    10
 Initial guess from the checkpoint file:  "/tmp/Gau-30674.chk"
 B after Tr=    -0.000000   -0.000000   -0.000000
         Rot=    1.000000   -0.000000    0.000000    0.000000 Ang=   0.00 deg.
 Initial guess orbital symmetries:
       Occupied  (A') (A') (A') (A') (A') (A") (A') (A') (A') (A')
                 (A") (A') (A")
       Virtual   (A') (A') (A') (A') (A') (A") (A') (A') (A") (A')
                 (A") (A') (A") (A') (A') (A') (A") (A') (A') (A")
                 (A') (A') (A") (A')
 Keep R1 ints in memory in symmetry-blocked form, NReq=7153137.
 Requested convergence on RMS density matrix=1.00D-08 within 128 cycles.
 Requested convergence on MAX density matrix=1.00D-06.
 Requested convergence on             energy=1.00D-06.
 No special actions if energy rises.
 SCF Done:  E(RB3LYP) =  -535.753044446     A.U. after    3 cycles
            NFock=  3  Conv=0.18D-09     -V/T= 2.0029
 Calling FoFJK, ICntrl=      2127 FMM=F ISym2X=1 I1Cent= 0 IOpClX= 0 NMat=1 NMatS=1 NMatT=0.
 ***** Axes restored to original set *****
 -------------------------------------------------------------------
 Center     Atomic                   Forces (Hartrees/Bohr)
 Number     Number              X              Y              Z
 -------------------------------------------------------------------
      1        8          -0.004716925    0.007472204   -0.045531559
      2       17           0.003798148   -0.005448865    0.034798364
      3        1           0.000918777   -0.002023340    0.010733195
 -------------------------------------------------------------------
 Cartesian Forces:  Max     0.045531559 RMS     0.019794466

 GradGradGradGradGradGradGradGradGradGradGradGradGradGradGradGradGradGrad
 Berny optimization.
 Internal  Forces:  Max     0.034961160 RMS     0.023295813
 Search for a saddle point.
 Step number 100 out of a maximum of  100
 All quantities printed in internal units (Hartrees-Bohrs-Radians)
 Swapping is turned off.
 Update second derivatives using D2CorX and points  100
 The second derivative matrix:
                          R1        R2        A1
           R1           0.12253
           R2          -0.01041   0.51084
           A1           0.05142   0.00292   0.18214
 ITU=  0  0  0  0
     Eigenvalues ---    0.09264   0.21174   0.51113
 Eigenvectors required to have negative eigenvalues:
                          R1        A1        R2
   1                   -0.86646   0.49862  -0.02506
 RFO step:  Lambda0=1.077501111D-01 Lambda= 0.00000000D+00.
 Linear search not attempted -- option 19 set.
 Iteration  1 RMS(Cart)=  0.00000006 RMS(Int)=  0.00000000
 ClnCor:  largest displacement from symmetrization is 3.75D-15 for atom     3.
 Variable       Old X    -DE/DX   Delta X   Delta X   Delta X     New X
                                 (Linear)    (Quad)   (Total)
    R1        3.51324  -0.03496   0.00000   0.00000   0.00000   3.51324
    R2        1.84353  -0.00101   0.00000   0.00000   0.00000   1.84353
    A1        1.60192   0.02012   0.00000  -0.00000  -0.00000   1.60192
         Item               Value     Threshold  Converged?
 Maximum Force            0.034961     0.000450     NO 
 RMS     Force            0.023296     0.000300     NO 
 Maximum Displacement     0.000000     0.001800     YES
 RMS     Displacement     0.000000     0.001200     YES
 Predicted change in Energy= 3.823008D-09
 Optimization stopped.
    -- Number of steps exceeded,  NStep= 100
    -- Flag reset to prevent archiving.
                           ----------------------------
                           ! Non-Optimized Parameters !
                           ! (Angstroms and Degrees)  !
 --------------------------                            --------------------------
 ! Name  Definition              Value          Derivative Info.                !
 --------------------------------------------------------------------------------
 ! R1    R(1,2)                  1.8591         -DE/DX =   -0.035               !
 ! R2    R(1,3)                  0.9756         -DE/DX =   -0.001               !
 ! A1    A(2,1,3)               91.7833         -DE/DX =    0.0201              !
 --------------------------------------------------------------------------------
 GradGradGradGradGradGradGradGradGradGradGradGradGradGradGradGradGradGrad

                          Input orientation:                          
 ---------------------------------------------------------------------
 Center     Atomic      Atomic             Coordinates (Angstroms)
 Number     Number       Type             X           Y           Z
 ---------------------------------------------------------------------
      1          8           0        2.365644    3.515513    0.018148
      2         17           0        2.349540    4.037174   -1.766221
      3          1           0        1.770638    2.764301   -0.164468
 ---------------------------------------------------------------------
                    Distance matrix (angstroms):
                    1          2          3
     1  O    0.000000
     2  Cl   1.859129   0.000000
     3  H    0.975551   2.126251   0.000000
 Stoichiometry    ClHO
 Framework group  CS[SG(ClHO)]
 Deg. of freedom     3
 Full point group                 CS      NOp   2
 Largest Abelian subgroup         CS      NOp   2
 Largest concise Abelian subgroup C1      NOp   1
                         Standard orientation:                         
 ---------------------------------------------------------------------
 Center     Atomic      Atomic             Coordinates (Angstroms)
 Number     Number       Type             X           Y           Z
 ---------------------------------------------------------------------
      1          8           0        0.037503    1.214417   -0.000000
      2         17           0        0.037503   -0.644712    0.000000
      3          1           0       -0.937576    1.244776   -0.000000
 ---------------------------------------------------------------------
 Rotational constants (GHZ):         562.3251740          12.7428291          12.4604631

 **********************************************************************

            Population analysis using the SCF density.

 **********************************************************************

 Orbital symmetries:
       Occupied  (A') (A') (A') (A') (A') (A") (A') (A') (A') (A')
                 (A") (A') (A")
       Virtual   (A') (A') (A') (A') (A') (A") (A') (A') (A") (A')
                 (A") (A') (A") (A') (A') (A') (A") (A') (A') (A")
                 (A') (A') (A") (A')
 The electronic state is 1-A'.
 Alpha  occ. eigenvalues -- -101.54464 -19.20948  -9.49514  -7.26842  -7.25247
 Alpha  occ. eigenvalues --   -7.25214  -1.02289  -0.79694  -0.50027  -0.43156
 Alpha  occ. eigenvalues --   -0.38395  -0.32368  -0.29372
 Alpha virt. eigenvalues --   -0.11727   0.05559   0.46553   0.55864   0.68344
 Alpha virt. eigenvalues --    0.69523   0.69580   0.75898   0.76109   0.83506
 Alpha virt. eigenvalues --    0.83953   0.92408   0.99536   0.99883   1.07447
 Alpha virt. eigenvalues --    1.38635   1.40000   1.49891   2.15267   2.59864
 Alpha virt. eigenvalues --    2.77846   2.91048   2.92379   3.63897
          Condensed to atoms (all electrons):
               1          2          3
     1  O    7.830270   0.138402   0.294924
     2  Cl   0.138402  16.826940  -0.017385
     3  H    0.294924  -0.017385   0.510908
 Mulliken charges:
               1
     1  O   -0.263596
     2  Cl   0.052043
     3  H    0.211553
 Sum of Mulliken charges =   0.00000
 Mulliken charges with hydrogens summed into heavy atoms:
               1
     1  O   -0.052043
     2  Cl   0.052043
 Electronic spatial extent (au):  <R**2>=            114.7406
 Charge=             -0.0000 electrons
 Dipole moment (field-independent basis, Debye):
    X=             -1.6570    Y=             -0.1156    Z=              0.0000  Tot=              1.6611
 Quadrupole moment (field-independent basis, Debye-Ang):
   XX=            -16.5315   YY=            -16.6618   ZZ=            -18.6927
   XY=             -2.3338   XZ=              0.0000   YZ=             -0.0000
 Traceless Quadrupole moment (field-independent basis, Debye-Ang):
   XX=              0.7638   YY=              0.6335   ZZ=             -1.3974
   XY=             -2.3338   XZ=              0.0000   YZ=             -0.0000
 Octapole moment (field-independent basis, Debye-Ang**2):
  XXX=             -2.2336  YYY=             -0.1398  ZZZ=              0.0000  XYY=             -3.1910
  XXY=              3.2094  XXZ=              0.0000  XZZ=             -0.2400  YZZ=              0.5522
  YYZ=             -0.0000  XYZ=             -0.0000
 Hexadecapole moment (field-independent basis, Debye-Ang**3):
 XXXX=            -16.8963 YYYY=            -88.2603 ZZZZ=            -16.7274 XXXY=             -0.3659
 XXXZ=              0.0000 YYYX=             -2.3242 YYYZ=             -0.0000 ZZZX=             -0.0000
 ZZZY=             -0.0000 XXYY=            -16.7181 XXZZ=             -5.9207 YYZZ=            -19.6738
 XXYZ=             -0.0000 YYXZ=             -0.0000 ZZXY=              0.5136
 N-N= 4.727948302007D+01 E-N=-1.367416866420D+03  KE= 5.342288189899D+02
 Symmetry A'   KE= 4.834789716874D+02
 Symmetry A"   KE= 5.074984730242D+01


 NO SCIENCE HAS EVER MADE MORE RAPID PROGRESS IN A
 SHORTER TIME THAN CHEMISTRY.
   -- MARTIN HEINRICH KLOPROTH, 1791
 (FIRST PROFESSOR OF CHEMISTRY AT THE UNIVERSITY OF BERLIN)
 Error termination request processed by link 9999.
 Error termination via Lnk1e in /share/apps/g16.a03/g16/l9999.exe at Thu Mar  6 16:40:21 2025.
 Job cpu time:       0 days  0 hours 12 minutes 40.2 seconds.
 Elapsed time:       0 days  0 hours  1 minutes 38.5 seconds.
 File lengths (MBytes):  RWF=      6 Int=      0 D2E=      0 Chk=      1 Scr=      1
