70
 energy: -143.144617346677 gnorm: 0.106821537520 xtb: 6.6.1 (8d0f1dd)
O     0.95505562    -2.58941662     3.01697193
H     0.69886547    -3.35014579     3.54137232
H     1.31633761    -2.93039621     2.19688235
O    -2.08506420     0.82010694     0.10514830
H    -2.20405348     1.44633663     0.82140016
H    -2.85560991     0.25123858     0.14971485
O    -3.52876641    -2.66964834    -0.26408007
H    -2.62338714    -2.35401602    -0.26587603
H    -3.50864432    -3.59714852    -0.50631320
O    -1.04832477    -1.60087007     0.54860075
H    -1.06129432    -0.70561872     0.20553255
H    -0.19956940    -1.71548966     0.97966354
O    -2.69254686    -1.04032244     2.85693180
H    -3.57737731    -1.26258297     2.56194957
H    -2.05029986    -1.22113414     2.16833611
O     3.46288698    -2.38630550    -2.16289765
H     3.25879286    -1.51609215    -2.50990239
H     4.38496970    -2.42986327    -1.90365714
O    -1.39663955    -4.17051766    -1.75808084
H    -1.01611538    -3.56178892    -1.12248025
H    -0.74086185    -4.49851990    -2.37590664
O     0.04480350    -0.18461132     3.75587237
H    -0.70740056    -0.34967341     4.32708313
H     0.61500835    -0.94278267     3.89508136
O     2.16955126     0.11378712    -2.51974878
H     1.74116836     0.92981698    -2.25532115
H     1.41648572    -0.34227480    -2.89953508
O    -0.92298998     0.12154008    -2.43300329
H    -1.86814235    -0.00864716    -2.52827448
H    -0.87137885     0.54780168    -1.57569609
O    -4.64256543    -0.48109595     0.16716169
Cl    -6.27911790    -0.60552594     0.62254658
H    -4.45928249    -1.20399224    -0.44473269
O     0.70023642     2.18465667     3.12722061
Cl    -0.28591715     3.32612226     3.91824658
H     0.50970378     1.30912582     3.48461416
O     1.88055627    -3.44559523    -0.36418511
Cl     2.88109662    -3.83126938     0.95919627
H     2.39808169    -2.98955532    -1.03855976
O    -2.93469075     1.75238117     2.69083138
Cl    -3.75944254     2.60991932     3.90967249
H    -2.95256832     0.80664049     2.88015392
C     5.44283429    -0.07668356     0.47231624
C     4.49201384    -0.18874049     1.47934469
C     3.41403448     0.66683715     1.60439005
C     3.28144830     1.67347660     0.64210694
C     4.14068373     1.71327172    -0.45562996
C     5.26505037     0.89738012    -0.50585052
H     4.47659580    -1.00899657     2.18487795
H     2.72859335     0.53828207     2.43483544
C    -0.81008910     4.09863301    -0.44482828
C    -0.71910600     4.16029868    -1.83759415
C    -1.99303057     4.41017331     0.23152159
C    -1.82394246     4.37619016    -2.65147173
H     0.27643945     3.98814460    -2.21391608
C    -3.06546808     4.76143011    -0.57194507
C    -2.96914106     4.72973925    -1.95534639
H    -1.72635985     4.37045708    -3.72933068
H    -3.99181177     5.00428660    -0.06825956
Cl     6.53636599    -1.41568076     0.34392810
Cl    -4.27571525     5.15163465    -3.03121254
N     2.20850294     2.55799120     0.83173060
H     1.80344867     2.56103538     1.75459379
C     1.43238506     3.08171280    -0.19011618
O     1.68763571     2.94579333    -1.36297901
N     0.32105832     3.73282500     0.30914234
H     0.15988015     3.77202886     1.30329155
H    -2.00872297     4.37517895     1.31593532
H     3.94578214     2.43119941    -1.23573135
Cl     6.46942309     1.29800685    -1.68666969
